MDANALYSIS FRAME 0: Created by PDBWriter in water
 5323
    0TYR      N    1   3.328   0.093   2.638  0.1279 -0.2711 -0.1282
    0TYR     H1    2   3.344   0.161   2.561 -1.0530  0.0184 -0.1364
    0TYR     H2    3   3.226   0.106   2.655  0.2778 -0.6468  1.2024
    0TYR     H3    4   3.387   0.109   2.722 -0.0045 -1.4542  0.2111
    0TYR     CA    5   3.325  -0.053   2.576 -0.0618 -0.0976  0.5630
    0TYR     HA    6   3.427  -0.079   2.552 -0.6915  0.0348 -2.5975
    0TYR     CB    7   3.261  -0.157   2.672  0.2017  0.0257 -0.4625
    0TYR    HB1    8   3.155  -0.129   2.692  0.0848 -0.7773  0.0789
    0TYR    HB2    9   3.273  -0.260   2.633 -0.7861 -0.2461 -0.0644
    0TYR     CG   10   3.329  -0.170   2.809  0.6517 -1.1531 -0.1892
    0TYR    CD1   11   3.274  -0.090   2.917  0.2594  0.2260  1.0153
    0TYR    HD1   12   3.177  -0.044   2.906 -0.3018 -1.5095 -2.9794
    0TYR    CE1   13   3.338  -0.092   3.046  0.3943  0.4978  0.6014
    0TYR    HE1   14   3.293  -0.032   3.123 -2.4206 -0.0300 -0.4965
    0TYR     CZ   15   3.453  -0.168   3.060  0.4563  0.2008  0.2012
    0TYR     OH   16   3.531  -0.161   3.179  0.2336 -0.0398 -0.6961
    0TYR     HH   17   3.480  -0.106   3.240 -0.2010  0.7072 -1.7027
    0TYR    CD2   18   3.445  -0.250   2.835  0.2203 -0.2504  0.4323
    0TYR    HD2   19   3.496  -0.287   2.747 -0.9003  2.7948 -1.6670
    0TYR    CE2   20   3.502  -0.245   2.959 -0.3710  0.2490 -0.1621
    0TYR    HE2   21   3.598  -0.291   2.977 -1.5365 -2.5319 -0.6285
    0TYR      C   22   3.257  -0.054   2.436 -0.0188 -0.4899 -0.0602
    0TYR      O   23   3.280   0.038   2.357  0.5866 -0.1176  0.4027
    1TYR      N   24   3.179  -0.156   2.400 -0.0805  0.3177 -0.0466
    1TYR     HN   25   3.157  -0.240   2.450 -3.0877 -0.3030 -2.1159
    1TYR     CA   26   3.111  -0.152   2.279 -0.2161  0.4708 -0.5143
    1TYR     HA   27   3.173  -0.103   2.204  1.5290  0.0853  0.6102
    1TYR     CB   28   3.094  -0.297   2.241  0.0541  0.1363  0.5658
    1TYR    HB1   29   3.190  -0.352   2.240  0.6658  1.1778 -0.9226
    1TYR    HB2   30   3.040  -0.357   2.317 -1.2367 -0.7722 -1.0011
    1TYR     CG   31   3.024  -0.318   2.111 -0.3401  0.7560  0.0392
    1TYR    CD1   32   3.084  -0.290   1.994 -0.7069 -0.7848  0.5583
    1TYR    HD1   33   3.185  -0.254   2.006 -2.3641  3.5877  3.9316
    1TYR    CE1   34   3.015  -0.291   1.870 -0.8120  0.2221 -0.0446
    1TYR    HE1   35   3.065  -0.260   1.779 -0.0628  2.0450  0.9278
    1TYR     CZ   36   2.883  -0.331   1.873 -0.2613 -0.3276  0.6594
    1TYR     OH   37   2.825  -0.343   1.751  0.6023  0.1549  0.1964
    1TYR     HH   38   2.733  -0.366   1.766  0.3611  2.3212  2.6492
    1TYR    CD2   39   2.892  -0.369   2.112  0.5044  0.4822  0.5001
    1TYR    HD2   40   2.836  -0.408   2.196 -1.2152  0.3759 -0.6519
    1TYR    CE2   41   2.817  -0.362   1.996  0.9606 -0.5838 -0.8946
    1TYR    HE2   42   2.719  -0.402   2.011  0.7433  0.3547  0.3121
    1TYR      C   43   2.976  -0.081   2.283  0.5946 -0.8540 -0.0264
    1TYR      O   44   2.883  -0.104   2.360 -0.0129  0.1430  0.6379
    2ASP      N   45   2.960   0.014   2.189 -0.4764  0.1738 -0.0014
    2ASP     HN   46   3.032   0.034   2.123 -1.9129  0.9738 -1.3969
    2ASP     CA   47   2.836   0.091   2.167 -0.6097 -0.2493 -0.4693
    2ASP     HA   48   2.782   0.085   2.260  0.9784 -2.0229  0.4010
    2ASP     CB   49   2.885   0.227   2.118 -0.3489  0.1256  0.5075
    2ASP    HB1   50   2.960   0.258   2.194  1.1839 -1.0366 -0.4919
    2ASP    HB2   51   2.935   0.222   2.019 -1.4171 -0.5625 -0.0154
    2ASP     CG   52   2.773   0.318   2.121  0.2329  0.0438  0.4662
    2ASP    OD1   53   2.654   0.280   2.084 -0.0196 -0.4990 -0.5295
    2ASP    OD2   54   2.791   0.440   2.143  0.0004 -0.6058 -0.5541
    2ASP      C   55   2.755   0.026   2.053 -0.1210  0.2425  0.4964
    2ASP      O   56   2.801   0.030   1.938 -0.2082 -0.5757  0.2118
    3PRO      N   57   2.642  -0.039   2.069 -0.4956 -0.4521 -0.1524
    3PRO     CD   58   2.576  -0.048   2.198  0.3053  0.6780  0.8348
    3PRO    HD1   59   2.546   0.052   2.236  3.6573  2.2715 -0.4025
    3PRO    HD2   60   2.644  -0.110   2.261  2.1611  0.3517 -1.3731
    3PRO     CA   61   2.573  -0.116   1.964  0.1454 -0.1631 -0.0126
    3PRO     HA   62   2.637  -0.181   1.906  0.4759  0.9570 -0.9605
    3PRO     CB   63   2.467  -0.196   2.041 -0.2185  0.0300  0.1204
    3PRO    HB1   64   2.367  -0.216   1.996 -1.2896 -0.7572  2.6562
    3PRO    HB2   65   2.504  -0.295   2.076  1.8318  0.4290 -0.8237
    3PRO     CG   66   2.442  -0.120   2.173  0.3409 -0.4596 -0.8675
    3PRO    HG1   67   2.360  -0.048   2.155 -0.1784 -0.0047  2.5213
    3PRO    HG2   68   2.400  -0.176   2.260  1.8706  2.9953  2.4014
    3PRO      C   69   2.504  -0.034   1.856 -0.1908  0.0694  0.1441
    3PRO      O   70   2.476  -0.065   1.743 -0.5698 -0.2013  0.2092
    4GLU      N   71   2.488   0.095   1.897 -0.1364  0.3527  0.4593
    4GLU     HN   72   2.525   0.127   1.984  0.8540 -0.2599  0.2821
    4GLU     CA   73   2.453   0.205   1.808 -0.3294  0.5849 -0.2629
    4GLU     HA   74   2.379   0.171   1.737 -0.8655  1.5716 -0.1845
    4GLU     CB   75   2.387   0.326   1.877  0.2987  0.1922  0.1235
    4GLU    HB1   76   2.456   0.364   1.956 -0.9617  4.3157 -0.4898
    4GLU    HB2   77   2.393   0.412   1.807  0.3083  1.3802  1.5181
    4GLU     CG   78   2.252   0.307   1.934  1.0985  0.1360  1.0257
    4GLU    HG1   79   2.175   0.329   1.856 -2.4803 -1.1279  3.9225
    4GLU    HG2   80   2.224   0.209   1.979  1.4731  0.1598  1.3135
    4GLU     CD   81   2.215   0.409   2.041 -0.1714  0.4127 -0.2878
    4GLU    OE1   82   2.094   0.452   2.042 -0.0008 -0.6000 -0.5314
    4GLU    OE2   83   2.300   0.450   2.121 -0.4644 -0.5679  0.1651
    4GLU      C   84   2.577   0.249   1.731 -0.1219  0.1469 -0.6817
    4GLU      O   85   2.582   0.228   1.608 -0.1699  0.1573  0.1735
    5THR      N   86   2.687   0.285   1.797  0.4410  0.0961 -0.1509
    5THR     HN   87   2.688   0.295   1.896 -1.6105 -0.2387 -0.0523
    5THR     CA   88   2.804   0.342   1.727  0.4499 -0.1611 -0.2529
    5THR     HA   89   2.760   0.414   1.661  0.7233 -0.1680 -0.4461
    5THR     CB   90   2.907   0.423   1.806  0.6219  0.3147 -0.5826
    5THR     HB   91   2.953   0.355   1.881 -0.1890  0.8389  0.4186
    5THR    OG1   92   2.838   0.521   1.887  0.0974  0.1835 -0.1077
    5THR    HG1   93   2.826   0.486   1.975  2.2585  1.3646  0.7166
    5THR    CG2   94   3.023   0.483   1.728 -0.5353 -0.0662  0.1077
    5THR   HG21   95   3.090   0.535   1.800 -0.5722 -0.7728  0.6586
    5THR   HG22   96   3.084   0.400   1.687  0.0427 -0.1048  1.0282
    5THR   HG23   97   2.974   0.550   1.654 -0.8342  3.2084  3.0209
    5THR      C   98   2.877   0.236   1.644 -0.1558 -0.4726  0.1828
    5THR      O   99   2.935   0.261   1.539  0.0475  0.2371  0.3189
    6GLY      N  100   2.863   0.108   1.685 -0.3041  0.1104 -0.6156
    6GLY     HN  101   2.810   0.093   1.768 -1.4488 -2.5362 -1.6988
    6GLY     CA  102   2.922  -0.005   1.611 -0.7205  0.1412  0.3864
    6GLY    HA1  103   2.877  -0.099   1.639  0.9340 -0.0962  2.4509
    6GLY    HA2  104   2.919   0.018   1.505 -2.5942  3.3340  0.9860
    6GLY      C  105   3.065  -0.035   1.640 -0.3687 -0.4631  0.2685
    6GLY      O  106   3.128  -0.115   1.575 -0.0644 -0.2520  0.9260
    7THR      N  107   3.123   0.036   1.743 -0.3872 -0.3135  0.2627
    7THR     HN  108   3.059   0.051   1.818 -1.6710 -1.4127 -0.5829
    7THR     CA  109   3.270   0.038   1.766 -0.1295  0.1101  0.1606
    7THR     HA  110   3.303  -0.065   1.772 -2.6614 -0.7095  1.7270
    7THR     CB  111   3.354   0.088   1.651  0.3287 -1.0965  0.4264
    7THR     HB  112   3.329   0.009   1.576  0.5362 -0.5460 -0.2322
    7THR    OG1  113   3.495   0.101   1.682  0.2017 -0.6192 -0.5721
    7THR    HG1  114   3.533   0.117   1.595 -0.3606 -0.3563 -0.7765
    7THR    CG2  115   3.311   0.222   1.605  0.3216 -0.9874  0.4572
    7THR   HG21  116   3.295   0.301   1.682  0.7703 -1.9033  1.5195
    7THR   HG22  117   3.378   0.274   1.534 -0.6331  0.3641  0.4944
    7THR   HG23  118   3.216   0.210   1.550  1.4565 -0.1155 -1.8053
    7THR      C  119   3.275   0.092   1.907 -0.4285 -0.0762 -0.5175
    7THR      O  120   3.178   0.086   1.981 -0.5399 -0.5501  0.3750
    8TRP      N  121   3.403   0.128   1.945  0.3141 -0.2201 -0.5142
    8TRP     HN  122   3.482   0.121   1.884  1.8518 -1.5158  1.4551
    8TRP     CA  123   3.447   0.130   2.088  0.2258  0.6764  0.2331
    8TRP     HA  124   3.378   0.085   2.158 -0.2535  1.5193  0.3228
    8TRP     CB  125   3.580   0.056   2.103 -0.0666 -0.1231  0.3689
    8TRP    HB1  126   3.570  -0.040   2.048 -1.2442  0.0173  0.3259
    8TRP    HB2  127   3.663   0.115   2.058  0.3766 -0.6575  0.4815
    8TRP     CG  128   3.614   0.014   2.254  0.5258 -0.6629 -0.0547
    8TRP    CD1  129   3.664   0.083   2.362 -0.6362  0.0079  0.2111
    8TRP    HD1  130   3.688   0.188   2.361  0.7411 -0.2837  0.4639
    8TRP    NE1  131   3.676   0.001   2.475 -0.4072  0.1934  0.1665
    8TRP    HE1  132   3.683   0.034   2.566 -0.8979  1.5757 -0.2790
    8TRP    CE2  133   3.645  -0.123   2.438 -0.0012 -0.2257 -0.1503
    8TRP    CD2  134   3.592  -0.121   2.308  0.5249 -0.2631  0.2643
    8TRP    CE3  135   3.541  -0.233   2.247  0.0834  0.1813  0.3330
    8TRP    HE3  136   3.496  -0.230   2.148 -1.3691  5.0230  0.8688
    8TRP    CZ3  137   3.537  -0.357   2.318 -0.0571  0.0204 -0.7324
    8TRP    HZ3  138   3.503  -0.447   2.269 -1.2173  0.2510 -0.3946
    8TRP    CZ2  139   3.645  -0.245   2.508 -0.4901  0.7935 -0.3809
    8TRP    HZ2  140   3.698  -0.263   2.601  0.1606 -1.6181 -1.1428
    8TRP    CH2  141   3.597  -0.361   2.444  0.3731  0.0787 -0.1057
    8TRP    HH2  142   3.590  -0.455   2.496 -0.1468  1.2682  2.0891
    8TRP      C  143   3.443   0.270   2.137 -0.4479 -0.4481 -0.0928
    8TRP      O  144   3.518   0.356   2.094  0.4027  0.3486  0.6074
    9ALA      N  145   3.357   0.298   2.239 -0.0321  0.2944 -0.2368
    9ALA     HN  146   3.301   0.225   2.277 -0.7542  0.4341 -1.0019
    9ALA     CA  147   3.335   0.422   2.306  0.0529  0.4338  0.4925
    9ALA     HA  148   3.372   0.507   2.250  0.9426 -0.5924 -0.5124
    9ALA     CB  149   3.183   0.445   2.335 -0.6077 -0.2596  0.4161
    9ALA    HB1  150   3.178   0.526   2.410  0.1036 -0.1679  0.3685
    9ALA    HB2  151   3.132   0.466   2.239 -1.9467  1.5209  1.4727
    9ALA    HB3  152   3.144   0.351   2.380  0.5059 -2.2246 -2.4024
    9ALA      C  153   3.405   0.429   2.435  0.0081 -0.6643  0.9890
    9ALA    OT1  154   3.482   0.526   2.468  0.0114 -0.0208 -0.0925
    9ALA    OT2  155   3.383   0.331   2.515  0.9563 -0.2356 -0.1571
   10SOL     OW  156   1.101   0.084   1.685 -1.1252 -0.0299  0.4576
   10SOL    HW1  157   1.020   0.043   1.655 -0.4931 -1.8689  1.0822
   10SOL    HW2  158   1.151   0.012   1.725 -0.2590  1.5107  2.3540
   11SOL     OW  159   0.338   1.380   2.791 -0.0754  0.2018 -0.2377
   11SOL    HW1  160   0.309   1.289   2.776  0.2031  0.2609 -1.1965
   11SOL    HW2  161   0.257   1.430   2.793 -0.1421  0.2858 -2.3703
   12SOL     OW  162   0.600   0.638   0.992 -0.3262  0.0653  0.1999
   12SOL    HW1  163   0.638   0.571   1.049  0.6066 -0.1408 -0.6232
   12SOL    HW2  164   0.530   0.592   0.946 -1.5584  0.4191  1.6590
   13SOL     OW  165   3.544   2.965   3.474 -0.3792 -0.2712  0.1199
   13SOL    HW1  166   3.628   2.986   3.434 -0.8690  0.5584 -0.5229
   13SOL    HW2  167   3.544   3.012   3.557  0.2038 -1.1163  0.6097
   14SOL     OW  168   3.095   3.096   2.129 -0.4764  0.2053  0.5335
   14SOL    HW1  169   3.156   3.094   2.055  1.1330  0.7992  1.7907
   14SOL    HW2  170   3.010   3.076   2.090  0.6442 -1.7430 -1.1303
   15SOL     OW  171   1.202   3.512   3.604  0.0531  0.4487 -1.0119
   15SOL    HW1  172   1.262   3.584   3.622 -1.3424  1.6547 -1.0359
   15SOL    HW2  173   1.122   3.534   3.652 -1.1252 -0.0148 -2.6726
   16SOL     OW  174   1.293   0.791   2.796  0.1063 -0.0795  0.6095
   16SOL    HW1  175   1.369   0.768   2.850  0.8080 -1.1119 -0.7671
   16SOL    HW2  176   1.330   0.817   2.712 -1.0665 -0.9036 -0.1931
   17SOL     OW  177   0.975   2.959   0.177 -0.3241  0.2234 -0.3780
   17SOL    HW1  178   1.041   2.910   0.227 -0.1085  0.8175 -0.0691
   17SOL    HW2  179   1.020   2.981   0.095 -0.7379 -0.9115 -0.9399
   18SOL     OW  180   0.991   1.415   3.498 -0.6436 -0.2081  0.5073
   18SOL    HW1  181   1.013   1.499   3.540 -0.8861  0.7564 -1.1758
   18SOL    HW2  182   1.056   1.354   3.532  0.6162  1.0709  0.5298
   19SOL     OW  183   0.232   2.477   3.674  0.8028  0.6511 -0.5651
   19SOL    HW1  184   0.245   2.389   3.709 -0.5154  0.6992  0.0915
   19SOL    HW2  185   0.168   2.465   3.604 -2.5598  1.5439  2.1163
   20SOL     OW  186   2.826   1.718   1.450 -0.2547 -0.0204 -0.0521
   20SOL    HW1  187   2.818   1.790   1.513 -0.9417 -0.0598 -0.0886
   20SOL    HW2  188   2.767   1.741   1.379 -0.3474 -0.5354 -0.1454
   21SOL     OW  189   2.425   0.332   1.016  0.0957 -0.3828  0.6461
   21SOL    HW1  190   2.474   0.402   1.060 -1.4293  0.1823  1.5163
   21SOL    HW2  191   2.492   0.278   0.974  1.3383  1.5797 -0.0372
   22SOL     OW  192   2.042   2.921   3.410 -1.1680  0.3702 -0.0195
   22SOL    HW1  193   2.101   2.847   3.419 -0.5394  0.9084  0.3251
   22SOL    HW2  194   2.066   2.981   3.480 -2.5556  0.3128  0.5484
   23SOL     OW  195   1.879   2.380   1.688 -0.2134  0.2403 -0.2361
   23SOL    HW1  196   1.889   2.425   1.604 -0.0635  1.0740  0.2235
   23SOL    HW2  197   1.899   2.447   1.754  0.2068 -0.5472  0.4520
   24SOL     OW  198   1.730   3.315   2.646 -0.4341  0.1101 -0.1826
   24SOL    HW1  199   1.650   3.300   2.697 -1.0827  0.7050 -0.9737
   24SOL    HW2  200   1.750   3.408   2.661  0.8188 -0.3369  0.9759
   25SOL     OW  201   1.791   2.201   1.028  0.4487  0.2863  0.2810
   25SOL    HW1  202   1.804   2.131   1.093  0.3299  0.2981  0.3177
   25SOL    HW2  203   1.836   2.170   0.950  1.5765  0.7765  0.7207
   26SOL     OW  204   3.521   3.137  -0.012 -0.1623  0.8594 -0.0678
   26SOL    HW1  205   3.590   3.145   0.054 -0.6110 -4.2609  1.4565
   26SOL    HW2  206   3.440   3.144   0.037 -0.5184 -1.1195 -0.2859
   27SOL     OW  207   2.838   0.622   2.605  0.4821  0.3017  0.2841
   27SOL    HW1  208   2.836   0.580   2.690  1.3322  0.4899  0.4039
   27SOL    HW2  209   2.864   0.553   2.544  1.5897  0.5567  0.4393
   28SOL     OW  210   3.687   2.114   1.691 -0.0480 -0.2368  0.2929
   28SOL    HW1  211   3.623   2.156   1.634 -0.4925  1.3288  1.8440
   28SOL    HW2  212   3.634   2.073   1.760  0.5654  1.2294  1.6958
   29SOL     OW  213   3.514   1.099   3.688  0.2973  0.1625  0.1340
   29SOL    HW1  214   3.566   1.178   3.678  0.5979 -0.1054 -0.4646
   29SOL    HW2  215   3.445   1.107   3.623  0.4055 -0.1248 -0.0210
   30SOL     OW  216   0.275   2.499   2.024  0.8760 -0.1586 -0.5097
   30SOL    HW1  217   0.241   2.467   2.108  0.6628  0.6658 -0.2759
   30SOL    HW2  218   0.361   2.536   2.046  0.6975  0.3166 -0.5974
   31SOL     OW  219   0.340   1.816   3.249 -0.8473 -0.3617  0.7145
   31SOL    HW1  220   0.294   1.761   3.313 -1.8180 -0.4178 -0.0072
   31SOL    HW2  221   0.306   1.787   3.165 -1.3115  1.2744  0.2991
   32SOL     OW  222   1.271   3.176   1.465 -0.3834 -0.0072  0.0527
   32SOL    HW1  223   1.188   3.127   1.468 -0.8250  0.6275 -0.9683
   32SOL    HW2  224   1.330   3.128   1.523 -1.2881 -0.8175  0.3304
   33SOL     OW  225   0.895   1.294   3.003  0.1523  0.1463  0.0140
   33SOL    HW1  226   0.923   1.261   3.088 -2.8023 -0.0364  0.9973
   33SOL    HW2  227   0.812   1.337   3.019 -0.3010  0.4954 -2.7275
   34SOL     OW  228   1.459   0.317   1.378 -0.1241  0.0292 -0.0405
   34SOL    HW1  229   1.412   0.278   1.452  0.0156  0.6173  0.3681
   34SOL    HW2  230   1.549   0.286   1.388 -0.3877 -1.0564 -0.7944
   35SOL     OW  231   2.834   3.058   0.311 -0.4142  0.2477  0.1497
   35SOL    HW1  232   2.762   3.110   0.276 -1.0516 -1.0340 -0.5237
   35SOL    HW2  233   2.839   3.082   0.404 -0.6592  1.5043 -0.1494
   36SOL     OW  234   2.594   3.502   0.298 -0.4599 -0.2597  0.6495
   36SOL    HW1  235   2.610   3.510   0.392 -1.8781 -0.6307  0.9371
   36SOL    HW2  236   2.615   3.588   0.262  3.4405 -0.9650  0.7240
   37SOL     OW  237   0.963   2.364   2.835  0.3504  0.0720  0.2080
   37SOL    HW1  238   0.915   2.446   2.824  1.1719  0.9366  2.4414
   37SOL    HW2  239   0.955   2.319   2.751 -3.5813  0.5341  0.1799
   38SOL     OW  240   0.036   0.463   1.536 -0.3987  0.6045  0.2368
   38SOL    HW1  241   0.119   0.510   1.534 -2.4242  4.5445 -0.0217
   38SOL    HW2  242  -0.002   0.485   1.621 -2.0444  0.5692 -0.4557
   39SOL     OW  243   0.295   1.782   1.216 -0.3254 -0.7764  0.5798
   39SOL    HW1  244   0.349   1.817   1.145  1.2256 -0.7490  1.7112
   39SOL    HW2  245   0.251   1.706   1.178 -0.4416 -0.0878 -0.7136
   40SOL     OW  246   2.472   2.438   0.719 -0.5652 -0.0650  0.6724
   40SOL    HW1  247   2.460   2.487   0.638 -0.6225  0.8529  1.2272
   40SOL    HW2  248   2.563   2.408   0.716 -0.8247 -0.7974 -0.1370
   41SOL     OW  249   1.520   0.676   0.139 -0.5354 -0.0108 -0.3240
   41SOL    HW1  250   1.589   0.628   0.183  0.9276  0.9886 -1.4309
   41SOL    HW2  251   1.480   0.611   0.080 -0.5912 -0.5982  0.3424
   42SOL     OW  252   2.670   2.555   2.428  0.8578  0.0601  0.1644
   42SOL    HW1  253   2.742   2.575   2.368  1.7094 -0.3687  0.9909
   42SOL    HW2  254   2.685   2.613   2.503 -1.6409  2.4315 -1.0080
   43SOL     OW  255   0.372   2.125   0.684 -0.0432  0.0740  0.1392
   43SOL    HW1  256   0.465   2.114   0.701  0.1368  2.4428  1.0743
   43SOL    HW2  257   0.358   2.219   0.688 -2.2709 -0.1203 -1.2303
   44SOL     OW  258   1.842   1.930   1.982  0.0086 -0.5051 -0.1451
   44SOL    HW1  259   1.769   1.871   1.965 -1.5062  1.3353 -0.3701
   44SOL    HW2  260   1.849   1.982   1.902 -1.0341  1.9291  1.2255
   45SOL     OW  261   0.956   0.399   1.750  0.5119  0.3098  0.2851
   45SOL    HW1  262   0.943   0.426   1.659  0.1683 -0.7500  0.0129
   45SOL    HW2  263   0.913   0.467   1.802 -2.0703 -0.6825 -0.4429
   46SOL     OW  264   1.853   1.971   2.242  0.1228 -0.4037 -0.4890
   46SOL    HW1  265   1.865   1.952   2.149  1.9301 -1.4616 -0.0863
   46SOL    HW2  266   1.770   2.018   2.246 -2.3419 -4.1268 -2.1545
   47SOL     OW  267   1.314   0.113   0.631 -0.1803 -0.0771 -0.5301
   47SOL    HW1  268   1.362   0.183   0.675 -0.5150 -0.8167  1.0470
   47SOL    HW2  269   1.289   0.152   0.547  1.3339  1.0260 -0.5229
   48SOL     OW  270   1.938   3.409   3.587 -0.2299  0.1116  0.4190
   48SOL    HW1  271   1.910   3.495   3.617 -2.0398 -0.5800  0.8876
   48SOL    HW2  272   1.928   3.412   3.492  0.8913  0.7878  0.3127
   49SOL     OW  273   1.143   1.785   0.816 -0.7214  0.0051  0.1047
   49SOL    HW1  274   1.086   1.709   0.803  0.0719 -0.5297 -0.2549
   49SOL    HW2  275   1.229   1.757   0.787 -0.3626  0.9702  0.1916
   50SOL     OW  276   0.033   1.906   3.352 -0.7075 -0.2621 -0.6359
   50SOL    HW1  277  -0.028   1.970   3.388  0.3731  1.9884 -2.5240
   50SOL    HW2  278   0.099   1.894   3.421 -0.5291  1.2710 -0.5113
   51SOL     OW  279   2.148   1.629   1.048 -0.0841 -0.1736 -0.1127
   51SOL    HW1  280   2.220   1.690   1.064 -0.3155  0.2310 -0.5616
   51SOL    HW2  281   2.173   1.549   1.093  1.4615 -0.6379 -1.7001
   52SOL     OW  282   3.507   2.702   0.394  0.1347 -0.3776  0.0000
   52SOL    HW1  283   3.505   2.654   0.476  1.6519  2.4472  1.8515
   52SOL    HW2  284   3.594   2.682   0.357 -0.2191 -0.9829 -0.5262
   53SOL     OW  285   2.340   2.721   0.271  0.6419  0.4627  0.5386
   53SOL    HW1  286   2.301   2.668   0.202 -0.4203  0.2161  1.3135
   53SOL    HW2  287   2.399   2.780   0.224  0.1294  0.1413 -0.5556
   54SOL     OW  288   3.277   1.119   0.542 -0.8963  0.2786  0.9453
   54SOL    HW1  289   3.306   1.139   0.453 -2.1935 -0.7234  0.2547
   54SOL    HW2  290   3.196   1.169   0.553 -2.6110 -2.1315  0.2458
   55SOL     OW  291   1.811   2.818   3.493  0.5647  0.3538 -0.0505
   55SOL    HW1  292   1.893   2.864   3.474  1.2607 -0.5211  0.7393
   55SOL    HW2  293   1.793   2.838   3.584 -1.8638  3.1586 -1.0001
   56SOL     OW  294   2.971   0.593   3.444 -0.0149  0.4188  0.4058
   56SOL    HW1  295   3.006   0.675   3.479  1.5787 -0.7065  1.6170
   56SOL    HW2  296   3.044   0.556   3.395  0.5101 -1.7911  2.6356
   57SOL     OW  297   1.223   3.656   1.040  0.0130  0.0072 -0.4983
   57SOL    HW1  298   1.166   3.727   1.009 -1.2397 -0.8088 -0.1623
   57SOL    HW2  299   1.305   3.699   1.063 -1.2061  1.6211  1.1610
   58SOL     OW  300   2.723   3.240   3.436  0.7332  0.5858 -0.5873
   58SOL    HW1  301   2.662   3.278   3.373 -0.0064  0.2368 -0.0921
   58SOL    HW2  302   2.686   3.154   3.457  1.2615  0.4728 -0.0886
   59SOL     OW  303   2.150   3.397   0.358 -0.0890 -0.0838 -0.5000
   59SOL    HW1  304   2.084   3.329   0.375 -0.5637  0.5418  0.2436
   59SOL    HW2  305   2.113   3.448   0.285 -0.5730  0.4296  0.0913
   60SOL     OW  306   0.646   2.821   2.164 -0.4862 -0.2630 -0.1127
   60SOL    HW1  307   0.582   2.886   2.193  0.2044  0.3566  0.0811
   60SOL    HW2  308   0.607   2.737   2.186 -1.6065  0.0574 -0.7895
   61SOL     OW  309   0.203   0.102   1.586 -0.5049  0.6059  0.0134
   61SOL    HW1  310   0.264   0.169   1.614 -0.6424  0.1216  1.5526
   61SOL    HW2  311   0.156   0.077   1.665 -1.9856  0.2321 -0.9280
   62SOL     OW  312   1.251   0.009   2.012  0.0892 -0.3616 -0.2981
   62SOL    HW1  313   1.253  -0.026   1.923  0.7068 -0.1251 -0.3866
   62SOL    HW2  314   1.181   0.073   2.011 -2.2745 -2.7440  0.3347
   63SOL     OW  315   1.899   2.164   1.327  0.1588  0.2580 -0.1904
   63SOL    HW1  316   1.952   2.197   1.400 -0.4281  1.6122 -0.3373
   63SOL    HW2  317   1.931   2.075   1.312  0.6685  0.1474  1.3511
   64SOL     OW  318   0.043   2.916   0.714 -0.1616 -0.0642 -0.8508
   64SOL    HW1  319   0.102   2.887   0.644  0.9367 -0.9893  0.4143
   64SOL    HW2  320   0.015   3.003   0.687  2.0341  0.5526 -1.3680
   65SOL     OW  321   3.113   2.777   0.872 -0.1005 -0.2517 -0.2655
   65SOL    HW1  322   3.169   2.757   0.947  1.0880 -1.1224 -1.3393
   65SOL    HW2  323   3.170   2.766   0.796 -1.3716  0.2303 -1.3221
   66SOL     OW  324   2.196   0.072   3.358  0.2377  0.0584 -0.4807
   66SOL    HW1  325   2.209   0.128   3.281  2.2958  2.3746  1.3880
   66SOL    HW2  326   2.146   0.125   3.419 -1.2083 -1.6679 -0.0875
   67SOL     OW  327   1.520   0.942   3.093 -0.6553  0.0100  0.5497
   67SOL    HW1  328   1.494   1.010   3.030 -1.1592 -0.6282  0.0505
   67SOL    HW2  329   1.437   0.916   3.134 -0.7285 -1.5264 -0.5185
   68SOL     OW  330   3.239   1.461   3.468  0.1838  0.0553 -0.1265
   68SOL    HW1  331   3.165   1.507   3.508  0.0096 -0.1374 -0.2275
   68SOL    HW2  332   3.296   1.439   3.542  0.3653  0.6044 -0.0966
   69SOL     OW  333   0.351   3.471   2.415  0.7231  0.2083 -0.2501
   69SOL    HW1  334   0.391   3.551   2.383  1.2787 -0.2137 -0.6452
   69SOL    HW2  335   0.281   3.500   2.474  1.7902  0.9626  0.6811
   70SOL     OW  336   3.175   2.357   2.822  0.3381  0.7502 -1.0951
   70SOL    HW1  337   3.083   2.350   2.848 -0.0196  1.4061 -2.1339
   70SOL    HW2  338   3.224   2.326   2.898 -0.7911 -1.9473 -1.3449
   71SOL     OW  339   1.441   2.695   2.523 -0.0209  0.4435  0.4932
   71SOL    HW1  340   1.514   2.753   2.543  0.9951  0.3530 -2.4137
   71SOL    HW2  341   1.474   2.607   2.545  0.4512  0.4834 -0.0341
   72SOL     OW  342   0.478   1.881   3.599  0.2820 -0.6888 -0.9357
   72SOL    HW1  343   0.505   1.890   3.690 -2.4640  0.8169 -0.1507
   72SOL    HW2  344   0.560   1.882   3.549  1.8231 -0.8796  1.4510
   73SOL     OW  345   1.470   0.650   2.313 -0.1419  0.3058 -0.8670
   73SOL    HW1  346   1.550   0.598   2.307  3.0331  4.5559 -0.3209
   73SOL    HW2  347   1.441   0.659   2.223 -0.6311 -2.0677 -0.9873
   74SOL     OW  348   2.085   3.221   0.857  0.0935 -0.5470 -0.5183
   74SOL    HW1  349   2.018   3.288   0.864 -0.9403 -1.4678 -1.3487
   74SOL    HW2  350   2.167   3.270   0.848 -0.4125  0.5882  0.7029
   75SOL     OW  351   1.538   1.853   2.517 -0.4385  0.3491  0.0408
   75SOL    HW1  352   1.532   1.820   2.428 -0.0971  2.5485 -0.8385
   75SOL    HW2  353   1.599   1.927   2.513  1.2095 -0.7024  2.4938
   76SOL     OW  354   0.510   2.168   3.174  0.0938 -0.6415 -0.0286
   76SOL    HW1  355   0.451   2.104   3.136 -2.0170 -0.0077  1.9149
   76SOL    HW2  356   0.548   2.124   3.250  0.5303 -0.3946 -0.1000
   77SOL     OW  357   3.255   0.649   0.467  0.1501 -0.3527 -0.3741
   77SOL    HW1  358   3.292   0.571   0.507 -0.3670 -0.3976  0.0199
   77SOL    HW2  359   3.317   0.719   0.489  0.1983 -0.4975 -0.0510
   78SOL     OW  360   3.495   2.194   0.839  0.2187 -0.6932 -0.0800
   78SOL    HW1  361   3.561   2.253   0.802 -0.4113 -0.6032 -1.1079
   78SOL    HW2  362   3.531   2.169   0.924  0.0681  1.9419  0.8710
   79SOL     OW  363   0.246   1.847   2.408  0.1339  0.1341 -0.0344
   79SOL    HW1  364   0.223   1.773   2.465 -1.4865 -0.3463 -1.2430
   79SOL    HW2  365   0.163   1.891   2.391  0.4594 -0.0570 -2.4345
   80SOL     OW  366   0.630   3.294   0.803 -0.0875  0.5959 -0.0801
   80SOL    HW1  367   0.641   3.208   0.843 -0.6890  0.7967  0.5320
   80SOL    HW2  368   0.700   3.299   0.738 -0.1329 -0.4122 -0.2305
   81SOL     OW  369   2.799   1.173   0.729  0.4336 -0.3611 -0.2883
   81SOL    HW1  370   2.712   1.172   0.768  0.6314  0.9701  0.2404
   81SOL    HW2  371   2.859   1.162   0.803  0.7370 -0.4637 -0.5469
   82SOL     OW  372   2.582   2.174   0.602 -0.0620  0.4709  0.3490
   82SOL    HW1  373   2.520   2.176   0.529  1.0828 -0.5928 -0.7185
   82SOL    HW2  374   2.622   2.261   0.601  0.9923  0.0202 -1.3052
   83SOL     OW  375   0.864   0.779   0.679 -0.6013  0.2813  0.0180
   83SOL    HW1  376   0.946   0.805   0.638 -0.8510  1.2774  0.1366
   83SOL    HW2  377   0.825   0.717   0.617  0.6139 -0.8653  0.3459
   84SOL     OW  378   2.026   0.962   3.492  0.6951 -0.3850 -0.0925
   84SOL    HW1  379   1.950   0.919   3.531 -0.3106 -0.2687 -1.8320
   84SOL    HW2  380   2.030   1.048   3.533  0.4586 -0.7365  0.6766
   85SOL     OW  381   0.224   0.222   3.613  0.4600  0.0592 -0.3142
   85SOL    HW1  382   0.218   0.176   3.530  1.2450  2.6826 -1.9319
   85SOL    HW2  383   0.318   0.229   3.630  0.3780  1.3680 -0.3121
   86SOL     OW  384   2.915   0.879   2.532 -0.3267  0.3333 -0.3929
   86SOL    HW1  385   2.846   0.929   2.488  0.6945 -0.4119 -3.0498
   86SOL    HW2  386   2.876   0.794   2.549 -0.7761  0.6746  0.3612
   87SOL     OW  387   1.794   1.012   3.168 -0.6907 -0.2032  0.2948
   87SOL    HW1  388   1.700   0.993   3.162 -0.6219 -0.8322  1.0239
   87SOL    HW2  389   1.803   1.099   3.132 -1.2654 -0.9071 -1.6582
   88SOL     OW  390   0.728   2.566   1.494 -0.1908  0.3047 -0.2061
   88SOL    HW1  391   0.781   2.645   1.511 -1.1871  1.0508 -0.4927
   88SOL    HW2  392   0.646   2.583   1.539 -0.8796 -0.0216 -1.3170
   89SOL     OW  393   3.506   0.607   2.881  0.4442  0.0884 -0.3022
   89SOL    HW1  394   3.586   0.657   2.864  0.3978  0.9757  1.7989
   89SOL    HW2  395   3.442   0.641   2.819  0.8725  1.5436  0.0208
   90SOL     OW  396   0.325   2.559   1.666  0.9504 -0.2296  0.0521
   90SOL    HW1  397   0.265   2.626   1.700  1.5600  0.7880 -0.7946
   90SOL    HW2  398   0.344   2.503   1.742 -0.0701  0.1756  0.6313
   91SOL     OW  399   1.459   2.859   2.782 -0.4585 -0.5296 -0.2219
   91SOL    HW1  400   1.462   2.832   2.873 -2.3283 -0.9210 -0.2330
   91SOL    HW2  401   1.433   2.780   2.734  1.7185 -0.6818 -1.3179
   92SOL     OW  402   3.543   2.835   3.201  0.0339 -0.2306 -0.4755
   92SOL    HW1  403   3.501   2.920   3.195 -0.0844 -0.1884  0.7199
   92SOL    HW2  404   3.472   2.775   3.224  0.4006 -0.3441  0.4224
   93SOL     OW  405   1.237   1.089   2.362 -0.1337 -0.7590 -0.2757
   93SOL    HW1  406   1.178   1.131   2.425  1.8598  0.0971  1.1227
   93SOL    HW2  407   1.233   1.145   2.285  0.7589  0.7926  0.7475
   94SOL     OW  408   2.081   3.128   1.206 -0.0556 -0.0452  0.2471
   94SOL    HW1  409   2.149   3.075   1.248 -2.7009 -1.1469  3.5964
   94SOL    HW2  410   2.037   3.067   1.146  1.6274  0.6229 -1.7914
   95SOL     OW  411   0.149   0.669   2.048  0.1412  0.2596 -0.4625
   95SOL    HW1  412   0.208   0.710   2.111 -0.3938  1.5055 -0.7439
   95SOL    HW2  413   0.132   0.582   2.084 -0.2117  0.9572  1.1680
   96SOL     OW  414   0.066   1.178   1.576  0.1570  0.3946  0.0059
   96SOL    HW1  415  -0.026   1.154   1.585  0.7634 -1.9342  0.5076
   96SOL    HW2  416   0.089   1.156   1.486  0.5643 -0.3942  0.2919
   97SOL     OW  417   1.293   2.633   2.172 -0.1755  0.1050  0.2083
   97SOL    HW1  418   1.310   2.717   2.129  3.0327 -0.3122  0.4613
   97SOL    HW2  419   1.278   2.655   2.263  0.5803  0.4391  0.2580
   98SOL     OW  420   3.107   1.457   2.248  0.1821 -0.2217  0.1619
   98SOL    HW1  421   3.181   1.429   2.301 -0.7337 -1.6232  0.7698
   98SOL    HW2  422   3.036   1.398   2.273 -1.5613  1.9084  0.6162
   99SOL     OW  423   1.918   1.104   0.627  0.5267  0.0360  0.1304
   99SOL    HW1  424   1.896   1.145   0.711  1.3289 -0.4514  0.5910
   99SOL    HW2  425   1.857   1.144   0.564 -1.2407 -0.8233  1.2170
  100SOL     OW  426   1.637   0.456   2.230 -0.2662  0.7037 -0.2059
  100SOL    HW1  427   1.594   0.385   2.183  1.5545  0.2840 -1.3364
  100SOL    HW2  428   1.645   0.424   2.320 -1.0778  0.2476 -0.2891
  101SOL     OW  429   2.745   2.328   3.664 -0.5334  0.2410  0.0866
  101SOL    HW1  430   2.840   2.318   3.667 -0.7019 -1.7886  2.0932
  101SOL    HW2  431   2.712   2.241   3.686 -2.9260  0.4527 -2.1882
  102SOL     OW  432   3.106   3.365   3.032 -0.6839  0.3837  0.1046
  102SOL    HW1  433   3.132   3.380   3.123 -1.8381 -1.4516  0.8120
  102SOL    HW2  434   3.177   3.312   2.995 -0.2064  1.1447 -0.0982
  103SOL     OW  435   1.692   1.930   2.830 -0.1125  0.2755 -0.0675
  103SOL    HW1  436   1.765   1.908   2.888  3.0580  0.5073 -3.5493
  103SOL    HW2  437   1.626   1.864   2.847  2.0210 -1.6082  1.4982
  104SOL     OW  438   1.080   2.117   0.570 -0.7660  0.4573 -0.2649
  104SOL    HW1  439   1.067   2.124   0.664 -1.8464  0.4872 -0.4049
  104SOL    HW2  440   0.992   2.103   0.534 -0.2715 -0.4373 -1.1872
  105SOL     OW  441   3.565   1.673   1.966  0.0840 -0.0144  0.0682
  105SOL    HW1  442   3.550   1.666   2.060 -1.7599  0.9386 -0.1162
  105SOL    HW2  443   3.609   1.591   1.943  0.1633 -0.4581  1.6755
  106SOL     OW  444   2.882   3.707   2.915  0.4787 -0.1715 -0.2074
  106SOL    HW1  445   2.797   3.709   2.873 -0.4764  2.2140  1.6197
  106SOL    HW2  446   2.871   3.649   2.990  0.7291 -0.4858 -0.4066
  107SOL     OW  447   0.489   0.177   3.651  0.6243  0.3829  0.2280
  107SOL    HW1  448   0.575   0.147   3.621  0.7388  2.8126 -2.2002
  107SOL    HW2  449   0.509   0.240   3.721  0.8743  1.1478 -0.5165
  108SOL     OW  450   0.941   0.979   3.687 -0.2832  0.0244  0.7535
  108SOL    HW1  451   1.008   0.998   3.752 -0.2081  0.0111  0.6808
  108SOL    HW2  452   0.966   0.894   3.651  0.1515  0.4149  0.1143
  109SOL     OW  453   0.491   0.222   2.889 -0.2242  0.2627  0.0283
  109SOL    HW1  454   0.499   0.269   2.807  0.7004  0.9745  0.5063
  109SOL    HW2  455   0.474   0.131   2.863 -0.2593  0.5357 -0.9327
  110SOL     OW  456   0.887   0.875   2.972  0.3985  0.0619  0.3278
  110SOL    HW1  457   0.810   0.917   3.010 -0.1770 -0.7906  0.1282
  110SOL    HW2  458   0.960   0.931   2.998 -0.2682  0.8094  0.6321
  111SOL     OW  459   3.330   0.002   3.699  0.3275 -0.0503 -0.4532
  111SOL    HW1  460   3.245  -0.038   3.679  0.1594 -0.0436  0.2034
  111SOL    HW2  461   3.310   0.095   3.711  0.5236  0.0421 -0.8385
  112SOL     OW  462   0.696   0.295   3.203  0.1079 -0.3110  0.5686
  112SOL    HW1  463   0.781   0.314   3.243  0.8354 -2.7863  0.3057
  112SOL    HW2  464   0.716   0.245   3.124 -1.6005 -2.2885  1.2917
  113SOL     OW  465   1.449   2.093   3.418  0.6630  0.1525 -0.3579
  113SOL    HW1  466   1.437   2.141   3.500 -0.0317 -0.3618 -0.1495
  113SOL    HW2  467   1.483   2.159   3.357  3.0620  0.1356  0.8218
  114SOL     OW  468   2.738   2.407   0.679 -1.0222 -0.0859 -0.6260
  114SOL    HW1  469   2.827   2.375   0.662 -0.6550  1.7543 -2.5759
  114SOL    HW2  470   2.750   2.476   0.744 -1.1959 -0.6403  0.0018
  115SOL     OW  471   3.289   0.875   1.310 -0.4007 -0.0860 -0.0154
  115SOL    HW1  472   3.263   0.962   1.278  2.0247 -0.3478 -3.1560
  115SOL    HW2  473   3.207   0.833   1.335 -2.0240  1.9207 -1.5939
  116SOL     OW  474   3.215   0.594   3.343  0.2728  0.3463  0.0870
  116SOL    HW1  475   3.260   0.510   3.354 -1.3398 -0.5971 -0.2419
  116SOL    HW2  476   3.253   0.631   3.263 -0.5515 -1.1462 -1.0503
  117SOL     OW  477   2.421   2.881   2.797 -0.3985 -0.4112 -0.8283
  117SOL    HW1  478   2.368   2.807   2.770 -1.1254 -0.5629  0.9245
  117SOL    HW2  479   2.507   2.843   2.818 -0.8665 -0.8308  0.3835
  118SOL     OW  480   2.208   1.331   0.814 -0.3999 -0.2512  0.1600
  118SOL    HW1  481   2.224   1.344   0.908  1.1405 -0.8393  0.0172
  118SOL    HW2  482   2.275   1.384   0.771 -0.7511 -0.4139 -0.5958
  119SOL     OW  483   1.411   1.185   1.489  0.0435 -0.3025 -0.2581
  119SOL    HW1  484   1.449   1.266   1.522 -2.0692 -0.1254  2.0398
  119SOL    HW2  485   1.394   1.203   1.396  0.4898  1.5413 -0.0202
  120SOL     OW  486   2.134   0.274   0.238  0.6187  0.0228 -0.3524
  120SOL    HW1  487   2.141   0.283   0.333 -0.7740  0.0604 -0.2285
  120SOL    HW2  488   2.106   0.183   0.225  1.1490 -0.0886 -0.7571
  121SOL     OW  489   1.939   1.898   3.580 -0.4135 -0.3406  0.1074
  121SOL    HW1  490   1.940   1.874   3.672 -0.8631  0.3980  0.3069
  121SOL    HW2  491   2.029   1.926   3.561  0.1313 -2.0885 -0.1269
  122SOL     OW  492   0.177  -0.013   0.064  0.0210  0.4349 -0.1978
  122SOL    HW1  493   0.258  -0.057   0.040  0.0956  0.5950 -0.2370
  122SOL    HW2  494   0.183   0.074   0.024 -0.0396  0.5513  0.0416
  123SOL     OW  495   2.785   2.966   2.264  0.4640 -0.1987 -0.5979
  123SOL    HW1  496   2.849   2.917   2.212  1.0007  1.8119 -1.9432
  123SOL    HW2  497   2.838   3.016   2.326 -0.0098 -0.5955  0.1410
  124SOL     OW  498   1.611   1.899   0.287 -0.4301  0.0426 -0.7072
  124SOL    HW1  499   1.633   1.806   0.275 -1.6514 -0.4202  0.3861
  124SOL    HW2  500   1.694   1.941   0.309 -0.2554 -1.3113  1.5127
  125SOL     OW  501   1.557   3.554   3.042  0.3782 -0.0322  0.0126
  125SOL    HW1  502   1.602   3.623   2.994  0.2279  0.3679  0.4376
  125SOL    HW2  503   1.543   3.591   3.130  1.9916 -1.3037  0.8468
  126SOL     OW  504   1.722   2.683   0.656  0.3238  0.3713 -0.7186
  126SOL    HW1  505   1.667   2.723   0.724 -0.3218 -2.1931  0.4018
  126SOL    HW2  506   1.791   2.747   0.641  0.2513  1.2503  2.0839
  127SOL     OW  507   2.353   0.762   1.866  0.0107 -0.6233 -0.1085
  127SOL    HW1  508   2.290   0.698   1.833  0.5291 -2.1430  1.6432
  127SOL    HW2  509   2.311   0.799   1.943  1.6951 -2.7534  1.9975
  128SOL     OW  510   0.186   2.161   2.597 -0.4184  0.0803  0.2440
  128SOL    HW1  511   0.263   2.193   2.551 -0.7779 -1.3135 -1.4292
  128SOL    HW2  512   0.218   2.086   2.648 -0.3774  0.4716  0.7989
  129SOL     OW  513   1.257   1.771   2.259  0.7574 -0.3956  0.2566
  129SOL    HW1  514   1.231   1.718   2.335  0.0333 -1.4218 -0.6856
  129SOL    HW2  515   1.223   1.724   2.184 -0.8047  1.9013 -0.5995
  130SOL     OW  516   2.027   2.248   0.685 -0.3951 -0.5931 -0.8250
  130SOL    HW1  517   2.006   2.286   0.771 -0.5397 -0.9129 -0.7171
  130SOL    HW2  518   2.057   2.322   0.633  0.0547 -0.4560 -0.3819
  131SOL     OW  519   1.457   3.722   1.468 -0.1463 -0.8474 -0.2770
  131SOL    HW1  520   1.405   3.650   1.434  1.5523 -2.9401  1.2824
  131SOL    HW2  521   1.548   3.693   1.458  0.6971  1.7445 -0.9318
  132SOL     OW  522   2.935   3.435   2.816 -0.3194  0.5495  0.1483
  132SOL    HW1  523   2.982   3.432   2.900  0.2835 -0.7157 -0.2187
  132SOL    HW2  524   2.918   3.528   2.802 -2.0622  0.6721  2.5665
  133SOL     OW  525   2.695   2.140   2.160 -0.0568 -0.3374  0.1016
  133SOL    HW1  526   2.768   2.158   2.101 -0.4726  0.2525 -0.2501
  133SOL    HW2  527   2.646   2.222   2.163 -1.9742 -1.3323 -1.4650
  134SOL     OW  528   1.254   0.784   0.776 -0.7539 -0.1136 -0.1903
  134SOL    HW1  529   1.301   0.851   0.826  0.7828 -1.4811  0.2959
  134SOL    HW2  530   1.275   0.702   0.821 -0.0389 -1.3019 -2.5164
  135SOL     OW  531   0.244   0.131   2.003 -0.4042  0.7074  0.1722
  135SOL    HW1  532   0.337   0.142   2.023  0.1082 -0.7073 -1.2321
  135SOL    HW2  533   0.226   0.196   1.936  0.3403 -0.8152 -1.5974
  136SOL     OW  534   3.444   2.352   0.145  0.1556 -0.5548  0.0912
  136SOL    HW1  535   3.417   2.292   0.214  0.0297 -2.3033 -1.3868
  136SOL    HW2  536   3.362   2.383   0.106  0.2253 -0.3318  0.1213
  137SOL     OW  537   1.081   1.405   1.456 -0.4133  0.1167  0.4734
  137SOL    HW1  538   0.996   1.447   1.467 -0.3635  0.2540  0.3298
  137SOL    HW2  539   1.142   1.478   1.443 -0.3415 -0.0045  0.1296
  138SOL     OW  540   1.219   3.327   0.173  0.5162 -0.2113  0.0179
  138SOL    HW1  541   1.286   3.260   0.180  0.4980 -0.0673  1.9849
  138SOL    HW2  542   1.233   3.383   0.249 -0.4687  1.1012 -0.7268
  139SOL     OW  543   1.913   0.831   1.733  0.1451  0.1160 -0.2087
  139SOL    HW1  544   1.886   0.741   1.748  1.8841 -0.8389 -2.2340
  139SOL    HW2  545   1.952   0.859   1.816 -0.3183 -1.0170  0.4099
  140SOL     OW  546   1.613   0.323   1.917 -0.6028 -0.3731 -0.1251
  140SOL    HW1  547   1.589   0.269   1.992  1.4242  0.9700  1.5796
  140SOL    HW2  548   1.556   0.400   1.924  0.1898  0.1663  0.6028
  141SOL     OW  549   0.917   0.432   0.615  0.2153  0.0614  0.3207
  141SOL    HW1  550   1.004   0.450   0.650  1.6965 -1.0754 -2.4947
  141SOL    HW2  551   0.902   0.503   0.552  0.0215 -0.8395 -0.6738
  142SOL     OW  552   0.038   1.712   0.514  0.1161  0.0133  0.4128
  142SOL    HW1  553   0.097   1.784   0.535 -0.7440  0.2969  1.9795
  142SOL    HW2  554   0.073   1.638   0.564  1.1350 -0.7788 -1.3665
  143SOL     OW  555   0.205   1.594   2.562 -0.5370  0.4323 -0.0388
  143SOL    HW1  556   0.112   1.590   2.539 -0.8562  1.0865  1.0589
  143SOL    HW2  557   0.207   1.577   2.657  0.4690  0.3596 -0.0603
  144SOL     OW  558   3.346   3.335   3.504  0.0313 -0.6954 -0.5890
  144SOL    HW1  559   3.300   3.418   3.515 -1.6112 -1.7236  0.6621
  144SOL    HW2  560   3.407   3.332   3.578  1.7670  0.3790 -1.8989
  145SOL     OW  561   0.748   2.867   2.502  0.2175 -0.5502 -0.2025
  145SOL    HW1  562   0.756   2.943   2.444  0.9947  0.9061  1.7230
  145SOL    HW2  563   0.824   2.813   2.481 -0.7094 -1.2091 -2.0746
  146SOL     OW  564   3.495   0.644   0.244  0.0825 -0.0462 -0.5685
  146SOL    HW1  565   3.438   0.704   0.292 -0.4959  0.1964 -1.5237
  146SOL    HW2  566   3.545   0.700   0.185  1.3471 -0.2555  0.2597
  147SOL     OW  567   2.136   2.848   2.527  0.7660 -0.4768  0.3182
  147SOL    HW1  568   2.190   2.786   2.478  0.7695 -1.5276  1.6178
  147SOL    HW2  569   2.197   2.917   2.552  1.0662 -0.6424  0.0589
  148SOL     OW  570   3.668   2.028   0.300 -0.5094 -0.1086 -0.5217
  148SOL    HW1  571   3.726   2.095   0.337  1.5270 -2.2240  0.4011
  148SOL    HW2  572   3.641   2.063   0.215  2.4698  0.8601 -1.1776
  149SOL     OW  573   2.222   1.046   0.238  0.6910  0.2881  0.7391
  149SOL    HW1  574   2.221   0.951   0.237 -0.7422  0.2038  2.8091
  149SOL    HW2  575   2.130   1.071   0.225  1.2616  1.4968 -1.4631
  150SOL     OW  576   0.282   2.349   2.801 -0.0866  0.0324 -0.2828
  150SOL    HW1  577   0.270   2.391   2.715 -0.6139  1.4760  0.4499
  150SOL    HW2  578   0.335   2.411   2.851  0.7576 -1.0812  0.2568
  151SOL     OW  579   1.994   1.133   2.796 -0.2216 -0.2931 -0.4383
  151SOL    HW1  580   1.942   1.177   2.729 -1.5732 -1.1283 -0.0075
  151SOL    HW2  581   2.068   1.096   2.749 -1.7790 -1.9360 -1.7865
  152SOL     OW  582   2.796   2.213   0.424 -0.1266  0.2730 -0.0438
  152SOL    HW1  583   2.746   2.167   0.491 -0.3727  0.5205 -0.0505
  152SOL    HW2  584   2.756   2.186   0.341  0.2113 -0.0726 -0.0930
  153SOL     OW  585   1.141   3.409   1.129 -0.0834  0.8718  0.0470
  153SOL    HW1  586   1.156   3.496   1.091 -1.3529  1.0355 -0.1189
  153SOL    HW2  587   1.211   3.355   1.093  1.8904  2.2215  1.5920
  154SOL     OW  588   0.897   2.691   0.437 -0.4414  0.1389  0.3377
  154SOL    HW1  589   0.843   2.731   0.505 -0.1070 -1.3986  1.5480
  154SOL    HW2  590   0.982   2.678   0.478 -0.2116 -0.7642 -0.3840
  155SOL     OW  591   3.727   2.294   0.079  0.1108  0.2325 -0.0698
  155SOL    HW1  592   3.687   2.340   0.004 -0.1323  1.9907  1.0812
  155SOL    HW2  593   3.654   2.280   0.139 -0.2639 -3.5927 -1.1778
  156SOL     OW  594   1.692   2.516   1.414  0.1316  0.5465  0.2068
  156SOL    HW1  595   1.756   2.473   1.356  1.0060  0.3633  1.2841
  156SOL    HW2  596   1.624   2.450   1.427  0.2581  0.3558 -0.0763
  157SOL     OW  597   0.104   1.706   0.827 -0.0586 -0.0919 -0.2781
  157SOL    HW1  598   0.144   1.787   0.798  1.4828  0.3563  2.6531
  157SOL    HW2  599   0.010   1.722   0.822  0.2064  1.4173 -0.9176
  158SOL     OW  600   1.246   0.377   2.784 -0.7211  0.3185  0.1524
  158SOL    HW1  601   1.219   0.373   2.692  0.4219 -0.1912 -0.1702
  158SOL    HW2  602   1.239   0.287   2.815  2.0180 -0.1553 -0.3795
  159SOL     OW  603   1.708   3.072   3.032 -0.2029 -0.0903  0.3210
  159SOL    HW1  604   1.641   3.139   3.046 -0.5351 -0.5103  0.7586
  159SOL    HW2  605   1.685   3.001   3.092  0.6365 -0.2442  0.4692
  160SOL     OW  606   1.932   2.081   0.103  0.5324  0.4572 -0.0047
  160SOL    HW1  607   1.842   2.099   0.074  1.0564  3.8654  0.1654
  160SOL    HW2  608   1.987   2.109   0.030  1.5829 -3.8435 -1.1506
  161SOL     OW  609   3.454   3.384   0.223 -0.1634  0.1269 -0.0269
  161SOL    HW1  610   3.519   3.360   0.287 -1.0798 -2.2135  0.1068
  161SOL    HW2  611   3.370   3.375   0.269 -0.6829  4.1457  0.1681
  162SOL     OW  612   1.516   1.162   0.902  0.3745  0.8368  0.3989
  162SOL    HW1  613   1.568   1.178   0.981 -1.7949  1.5754  1.7577
  162SOL    HW2  614   1.489   1.071   0.908 -0.4368  1.1058  0.9377
  163SOL     OW  615   1.836   1.897   1.071  0.6038  0.1358 -0.4005
  163SOL    HW1  616   1.743   1.883   1.052  0.7584 -0.9100 -0.4846
  163SOL    HW2  617   1.881   1.870   0.992  0.8997  2.8647 -1.2394
  164SOL     OW  618   0.312   1.732   1.736  0.9094 -0.1496  0.6129
  164SOL    HW1  619   0.317   1.639   1.760 -1.3807 -0.5649 -0.3210
  164SOL    HW2  620   0.351   1.736   1.649  1.9963 -0.0283  1.0951
  165SOL     OW  621   2.806   1.533   1.855 -0.0223 -0.8568  0.3439
  165SOL    HW1  622   2.802   1.443   1.885 -0.0399 -0.9114  0.1798
  165SOL    HW2  623   2.784   1.528   1.762 -0.4715 -0.6316  0.4344
  166SOL     OW  624   2.088   0.960   2.484  0.2292  0.8946  0.5584
  166SOL    HW1  625   2.176   0.941   2.453  0.3979 -0.0533  1.5742
  166SOL    HW2  626   2.033   0.952   2.406  1.0842  2.0011 -0.1944
  167SOL     OW  627   3.341   2.765   3.470  0.4214 -0.2142 -0.0114
  167SOL    HW1  628   3.249   2.787   3.457  1.2004  2.4301 -2.2622
  167SOL    HW2  629   3.386   2.850   3.468  2.7847 -1.2195  3.0666
  168SOL     OW  630   0.614   0.133   2.568  0.0160 -0.6453  0.0593
  168SOL    HW1  631   0.601   0.225   2.545 -1.1165 -1.1565 -1.5397
  168SOL    HW2  632   0.642   0.092   2.486 -1.4392 -2.0725  0.2221
  169SOL     OW  633   3.045   0.204   1.305 -0.2014  0.3702 -0.2180
  169SOL    HW1  634   3.024   0.231   1.394 -2.9250 -1.2358 -0.2531
  169SOL    HW2  635   3.139   0.220   1.296 -0.0779  1.7379  2.4782
  170SOL     OW  636   0.310   2.623   2.347 -0.6018  0.2368 -0.3477
  170SOL    HW1  637   0.403   2.611   2.329 -0.0949  1.1979  1.3489
  170SOL    HW2  638   0.308   2.688   2.417 -2.4712 -0.8563  0.7032
  171SOL     OW  639   0.018   1.955   1.390  0.3462 -0.2641  0.2497
  171SOL    HW1  640  -0.034   1.965   1.310  1.8344 -0.8852 -0.8595
  171SOL    HW2  641   0.019   1.861   1.407 -0.2015 -0.1055  1.1764
  172SOL     OW  642   0.670   2.301   0.537  0.5351  0.2850  0.1910
  172SOL    HW1  643   0.598   2.347   0.493  1.3139  0.3285 -1.1110
  172SOL    HW2  644   0.723   2.371   0.574  0.7936  0.3647 -0.3094
  173SOL     OW  645   2.614   1.710   3.425  0.1496 -0.3191 -0.2843
  173SOL    HW1  646   2.629   1.652   3.350 -3.2929 -0.0191 -1.3713
  173SOL    HW2  647   2.587   1.652   3.496 -0.2664 -0.3189 -0.4387
  174SOL     OW  648   1.902   2.885   0.565  0.1986 -0.5421 -0.2393
  174SOL    HW1  649   1.966   2.847   0.503 -1.5226 -0.9992 -1.8353
  174SOL    HW2  650   1.925   2.978   0.569  1.3192 -0.7951 -0.2913
  175SOL     OW  651   2.294   3.045   0.220 -0.1089 -0.5160 -0.2792
  175SOL    HW1  652   2.226   3.067   0.157 -0.4344  1.5907  0.7176
  175SOL    HW2  653   2.372   3.090   0.189  0.1178 -0.6722  0.0487
  176SOL     OW  654   1.278   2.478   0.153  0.5197 -0.2750 -0.1242
  176SOL    HW1  655   1.202   2.525   0.117  0.3698 -1.7316 -1.8158
  176SOL    HW2  656   1.259   2.471   0.247 -1.4264 -0.5558 -0.4990
  177SOL     OW  657   1.916   2.385   2.856 -0.8137 -0.0882  1.0973
  177SOL    HW1  658   1.945   2.351   2.771 -0.5130 -2.7618  2.1869
  177SOL    HW2  659   1.944   2.477   2.855  0.5245 -0.4309 -1.0856
  178SOL     OW  660   0.487   3.448   1.373 -0.6927  0.5405  0.1088
  178SOL    HW1  661   0.490   3.386   1.446  1.0488 -0.6940 -0.9244
  178SOL    HW2  662   0.468   3.394   1.296  0.0686  1.3803 -0.7040
  179SOL     OW  663   1.402   3.139   0.201 -0.8675  0.9819  0.2541
  179SOL    HW1  664   1.453   3.135   0.120 -1.0171  1.0791  0.1559
  179SOL    HW2  665   1.369   3.050   0.213  0.9012  0.4083  1.3316
  180SOL     OW  666   0.465   0.845   1.469 -0.3399 -0.1027  0.5518
  180SOL    HW1  667   0.531   0.864   1.536  0.6816 -1.1314 -0.1257
  180SOL    HW2  668   0.515   0.809   1.396 -1.4871  0.5646 -0.6005
  181SOL     OW  669   2.302   2.250   0.469 -1.0804  0.4541  0.4423
  181SOL    HW1  670   2.235   2.191   0.435 -1.0189  0.9709 -0.5997
  181SOL    HW2  671   2.272   2.338   0.446  0.1114  0.6821 -0.3545
  182SOL     OW  672   3.269   1.841   1.551  0.7717  0.1713 -0.1622
  182SOL    HW1  673   3.284   1.829   1.645  1.4310 -0.2291 -0.3145
  182SOL    HW2  674   3.192   1.787   1.533  0.8172  0.0157  0.0927
  183SOL     OW  675   2.198   2.313   1.060  0.5178 -0.8204 -0.1119
  183SOL    HW1  676   2.241   2.274   1.136 -0.6253 -0.2184  0.8774
  183SOL    HW2  677   2.202   2.407   1.076 -3.6790 -0.7069  1.5945
  184SOL     OW  678   1.913   3.454   0.623  0.2010 -0.0646 -0.6263
  184SOL    HW1  679   1.828   3.493   0.602  0.5371  1.1547  0.1490
  184SOL    HW2  680   1.915   3.453   0.719  1.0544 -0.0714 -0.6424
  185SOL     OW  681   3.193   2.753   2.577 -0.9070  0.1336 -0.2117
  185SOL    HW1  682   3.244   2.674   2.558 -0.5705  0.2908  0.0315
  185SOL    HW2  683   3.186   2.798   2.493  0.3872  0.7173 -0.0220
  186SOL     OW  684   1.719   0.559   1.610 -0.1936 -0.3202 -0.0735
  186SOL    HW1  685   1.633   0.577   1.649 -0.5065  1.2040 -1.3484
  186SOL    HW2  686   1.739   0.469   1.636 -1.9174 -0.5080  0.7281
  187SOL     OW  687   3.489   1.550   0.240 -0.3409 -0.5204 -0.3612
  187SOL    HW1  688   3.413   1.498   0.266 -0.4908 -0.3368 -0.4308
  187SOL    HW2  689   3.466   1.583   0.153 -0.7270  0.6018  0.1561
  188SOL     OW  690   3.656   2.592   1.684 -0.2594  0.0532 -0.0708
  188SOL    HW1  691   3.709   2.649   1.740  1.0482 -2.6695  1.6907
  188SOL    HW2  692   3.589   2.557   1.743 -2.0984  1.0081 -1.5243
  189SOL     OW  693   1.775   2.405   0.692  0.0008  0.2993  0.3458
  189SOL    HW1  694   1.744   2.495   0.685 -2.2696 -0.2995  1.8125
  189SOL    HW2  695   1.813   2.399   0.780 -1.1886 -0.5206  0.8273
  190SOL     OW  696   0.443   2.667   0.598  0.4154  0.3570 -0.3937
  190SOL    HW1  697   0.520   2.703   0.556 -0.4658  0.5376 -1.9387
  190SOL    HW2  698   0.369   2.709   0.553 -0.5973  0.8225  1.5846
  191SOL     OW  699   1.327   1.574   0.873  0.8755 -0.0710  0.6695
  191SOL    HW1  700   1.271   1.571   0.950  0.7184 -1.8439  0.5175
  191SOL    HW2  701   1.416   1.573   0.909  0.8784  2.1846  0.8877
  192SOL     OW  702   2.805   2.835   0.139 -0.0425  0.3606 -0.2555
  192SOL    HW1  703   2.882   2.779   0.137  1.6098  2.3004  2.5389
  192SOL    HW2  704   2.839   2.923   0.153 -2.7026  1.6718 -1.1699
  193SOL     OW  705   1.829   1.416   3.645  0.8536 -0.7359  0.4829
  193SOL    HW1  706   1.779   1.487   3.605 -1.2445 -1.5941  1.4145
  193SOL    HW2  707   1.920   1.445   3.640  0.7284 -0.3229 -3.9039
  194SOL     OW  708   2.309   0.921   3.409  0.4561 -0.3187 -0.4838
  194SOL    HW1  709   2.218   0.929   3.439  0.7782 -2.1608  1.2461
  194SOL    HW2  710   2.306   0.944   3.316 -0.9135  4.1057  0.4147
  195SOL     OW  711   0.649   1.738   0.144  1.0213  0.0081  1.0434
  195SOL    HW1  712   0.601   1.799   0.200  1.2282  0.4438  0.7581
  195SOL    HW2  713   0.706   1.794   0.091  0.5051 -0.3468  0.0768
  196SOL     OW  714   1.551   0.152   2.689  0.1267  0.1614 -0.0260
  196SOL    HW1  715   1.471   0.104   2.669 -0.4972  1.1052  0.1435
  196SOL    HW2  716   1.561   0.144   2.784 -0.3763  0.9602  0.1002
  197SOL     OW  717   3.399   2.057   2.943  0.0499  0.4548 -0.0430
  197SOL    HW1  718   3.352   2.109   3.009  0.1312  0.2294  0.1935
  197SOL    HW2  719   3.491   2.070   2.964  0.0558 -0.6770  0.7179
  198SOL     OW  720   3.694   3.621   3.563  0.0097  0.9193 -0.1413
  198SOL    HW1  721   3.635   3.563   3.611 -0.1477  1.0748 -0.1463
  198SOL    HW2  722   3.766   3.638   3.624  2.0008 -2.2502 -1.3587
  199SOL     OW  723   1.204   0.184   0.389  0.2897 -0.0160  0.4676
  199SOL    HW1  724   1.116   0.210   0.362  0.9082 -1.5204 -3.8089
  199SOL    HW2  725   1.262   0.244   0.343  1.4682 -2.0702 -0.9194
  200SOL     OW  726   0.426   3.634   0.026  0.1294  0.1334 -0.2683
  200SOL    HW1  727   0.496   3.597   0.081 -1.3162  0.5335  1.9512
  200SOL    HW2  728   0.456   3.723   0.006  0.7166 -0.0496 -0.2414
  201SOL     OW  729   1.128   1.038   2.999  0.3398 -0.2307 -0.8627
  201SOL    HW1  730   1.178   1.070   3.074  0.4661 -1.7701 -0.2676
  201SOL    HW2  731   1.148   1.100   2.929 -1.1244  2.3134  0.7741
  202SOL     OW  732   1.742   2.959   1.722  0.0417 -0.5561 -0.1865
  202SOL    HW1  733   1.726   2.865   1.714  2.8553 -1.3613  1.9875
  202SOL    HW2  734   1.707   2.982   1.808 -1.1865  0.6009 -0.9497
  203SOL     OW  735   2.067   3.132   2.066 -0.2002  0.1645  0.2605
  203SOL    HW1  736   2.115   3.050   2.075  1.3045  0.9507 -0.1126
  203SOL    HW2  737   2.065   3.169   2.154  4.0658  2.2718 -0.2495
  204SOL     OW  738   0.324   2.554   3.351 -0.1935  0.0421  0.0293
  204SOL    HW1  739   0.249   2.496   3.354 -1.1865  1.3185  0.9430
  204SOL    HW2  740   0.399   2.497   3.371 -1.2505 -0.7530  2.1039
  205SOL     OW  741   0.510   3.286   0.080 -0.2646 -0.2091 -0.6239
  205SOL    HW1  742   0.589   3.294   0.134 -1.2828 -0.0004  0.9190
  205SOL    HW2  743   0.496   3.192   0.073 -0.1268 -0.2368 -0.5335
  206SOL     OW  744   0.985   0.717   0.202 -0.1508  0.1600  0.3118
  206SOL    HW1  745   1.075   0.734   0.174 -0.8043  2.3113 -0.7261
  206SOL    HW2  746   0.962   0.634   0.160  0.9933  0.1357 -0.3120
  207SOL     OW  747   2.483   2.529   1.891  0.1613  0.2377 -0.0756
  207SOL    HW1  748   2.458   2.506   1.981  1.6729 -2.1970 -0.2002
  207SOL    HW2  749   2.535   2.609   1.901 -0.0010  0.2041  1.1692
  208SOL     OW  750   0.283   0.585   1.358 -0.0538 -0.0056  0.4342
  208SOL    HW1  751   0.245   0.657   1.409  0.8215  0.7875 -0.0112
  208SOL    HW2  752   0.294   0.621   1.270  1.7828 -0.1657  0.5604
  209SOL     OW  753   2.684   3.706   2.736 -0.5315 -0.4980  0.2928
  209SOL    HW1  754   2.687   3.612   2.754 -0.0366 -0.6648 -0.6058
  209SOL    HW2  755   2.593   3.731   2.754 -1.0929 -1.4863 -0.9822
  210SOL     OW  756   2.319   3.177   3.244  0.3893 -0.3455 -0.4559
  210SOL    HW1  757   2.380   3.148   3.175 -0.9246 -2.4336 -0.8376
  210SOL    HW2  758   2.232   3.170   3.204 -0.2611  0.6156  0.7170
  211SOL     OW  759   0.734   0.938   3.211  0.1628 -0.4729 -0.2980
  211SOL    HW1  760   0.648   0.898   3.199  0.9258 -1.8436 -1.5788
  211SOL    HW2  761   0.780   0.880   3.272  0.7389 -0.6887 -0.9241
  212SOL     OW  762   1.053   0.138   3.139 -0.0510 -0.1463  0.5644
  212SOL    HW1  763   1.140   0.106   3.114  0.0774 -0.1985  1.0570
  212SOL    HW2  764   0.992   0.092   3.082  0.3671  1.3076 -1.1491
  213SOL     OW  765   1.720   2.742   2.295  0.2567 -0.2406 -0.3710
  213SOL    HW1  766   1.629   2.714   2.305  0.0542  0.3938 -0.4159
  213SOL    HW2  767   1.770   2.661   2.301 -0.2153 -0.4596  0.9236
  214SOL     OW  768   0.605   0.290   0.177 -0.3236  0.6567  0.6826
  214SOL    HW1  769   0.667   0.347   0.221 -1.2498  2.6438 -0.4235
  214SOL    HW2  770   0.533   0.279   0.239 -0.1481  0.7304  0.8971
  215SOL     OW  771   0.921   3.654   3.370 -0.3847  0.6190 -0.4662
  215SOL    HW1  772   0.941   3.603   3.449  1.1363  0.1190 -1.1292
  215SOL    HW2  773   0.847   3.709   3.395  0.0782  0.4903  1.3247
  216SOL     OW  774   0.472   1.225   0.964 -0.4868  0.6181 -0.4192
  216SOL    HW1  775   0.430   1.221   0.878 -1.2993  0.8526 -0.0430
  216SOL    HW2  776   0.528   1.302   0.959 -0.6434  0.7155 -0.6945
  217SOL     OW  777   1.612   1.641   1.445  0.5486 -0.0693 -0.2361
  217SOL    HW1  778   1.570   1.680   1.368  1.0478  1.6476  0.3278
  217SOL    HW2  779   1.602   1.707   1.514 -0.1598 -1.6830  1.2973
  218SOL     OW  780   0.744   3.093   2.956 -0.4320 -0.0832  0.3857
  218SOL    HW1  781   0.692   3.034   2.903 -0.3550 -1.1706  1.4769
  218SOL    HW2  782   0.697   3.097   3.040 -0.8795  2.0477  0.0882
  219SOL     OW  783   1.491   1.653   0.472  0.6655 -0.0127  0.2024
  219SOL    HW1  784   1.478   1.726   0.531  1.0221  2.0174 -2.0582
  219SOL    HW2  785   1.585   1.637   0.473  0.7108  0.2277 -0.0089
  220SOL     OW  786   3.005   1.721   1.881  0.2278  0.2284  0.4156
  220SOL    HW1  787   2.941   1.655   1.858  0.7309 -0.6278  1.3791
  220SOL    HW2  788   3.090   1.676   1.874  0.5466  0.6263  1.5282
  221SOL     OW  789   1.818   0.173   3.518  0.2092  0.5899 -0.2910
  221SOL    HW1  790   1.909   0.203   3.513  0.1780  0.5314 -1.5940
  221SOL    HW2  791   1.772   0.223   3.451 -0.6457  0.3202  0.0762
  222SOL     OW  792   2.556   1.389   0.117  0.2716  0.3022  0.0637
  222SOL    HW1  793   2.476   1.337   0.113  1.3201 -1.5748  1.6202
  222SOL    HW2  794   2.532   1.466   0.169 -0.8824  0.5587 -0.8203
  223SOL     OW  795   2.730   1.295   1.959 -0.0501 -0.3618 -0.2300
  223SOL    HW1  796   2.634   1.289   1.956 -0.2141  0.8086  1.3163
  223SOL    HW2  797   2.748   1.343   2.040  1.9582 -2.4582  0.6437
  224SOL     OW  798   1.862   1.656   2.896  0.1041 -0.0017 -0.0372
  224SOL    HW1  799   1.914   1.735   2.881 -1.5242  0.7544 -2.2372
  224SOL    HW2  800   1.924   1.592   2.931  2.1837  1.2504 -1.2494
  225SOL     OW  801   2.701   2.315   1.914 -0.4369  0.1697 -0.1907
  225SOL    HW1  802   2.726   2.331   1.823 -0.7483 -2.7875 -0.9217
  225SOL    HW2  803   2.606   2.328   1.915 -0.4612  0.0184 -0.3609
  226SOL     OW  804   3.014   2.252   3.461  0.0588  0.6443  0.4126
  226SOL    HW1  805   3.007   2.260   3.366  0.2925 -0.8185  0.2495
  226SOL    HW2  806   3.047   2.337   3.490 -0.6291  1.3284 -0.7315
  227SOL     OW  807   0.215   2.068   1.577 -0.4371 -0.0699 -0.2199
  227SOL    HW1  808   0.190   2.022   1.497 -1.3902  1.0820 -0.6137
  227SOL    HW2  809   0.132   2.094   1.617 -0.0471 -1.8201  1.9140
  228SOL     OW  810   1.576   2.965   3.657 -0.1859 -0.1772  0.1453
  228SOL    HW1  811   1.655   2.946   3.708  0.7561 -1.2634 -1.6192
  228SOL    HW2  812   1.607   3.014   3.581 -1.2695 -0.2303 -0.3479
  229SOL     OW  813   0.235   0.494   0.258 -0.1882  0.1795  0.2285
  229SOL    HW1  814   0.219   0.540   0.340 -1.1474  1.3455 -0.5766
  229SOL    HW2  815   0.317   0.532   0.225 -1.8718  2.7450 -1.3111
  230SOL     OW  816   2.394   3.484   3.104 -0.5375 -0.2856 -0.3833
  230SOL    HW1  817   2.315   3.464   3.153 -0.3739  0.4235  0.1775
  230SOL    HW2  818   2.366   3.484   3.012 -1.1398 -0.2476 -0.2014
  231SOL     OW  819   0.642   2.742   1.060  0.8446  0.0551 -0.0928
  231SOL    HW1  820   0.582   2.750   0.986 -0.1522  0.2041  0.7081
  231SOL    HW2  821   0.729   2.752   1.021  0.3404  0.2652 -1.2206
  232SOL     OW  822   2.778   1.074   1.314  0.1050 -0.2217 -0.1265
  232SOL    HW1  823   2.754   1.015   1.386  1.7565 -1.7004 -0.7132
  232SOL    HW2  824   2.707   1.138   1.311 -0.2816 -0.4094  2.4766
  233SOL     OW  825   3.525   3.093   2.097 -0.1479 -0.5450 -0.4575
  233SOL    HW1  826   3.606   3.071   2.050  0.4611  0.8417 -0.1009
  233SOL    HW2  827   3.479   3.153   2.038  0.3786  0.7937  0.4536
  234SOL     OW  828   0.851   0.617   1.874  0.8579 -0.0209  0.1586
  234SOL    HW1  829   0.778   0.675   1.853  2.2407  1.5459 -0.5444
  234SOL    HW2  830   0.905   0.667   1.935  2.3029 -0.3983 -0.7773
  235SOL     OW  831   2.052   1.988   0.572  0.0298 -0.0187  0.0022
  235SOL    HW1  832   2.107   1.933   0.628 -0.3467 -0.7595 -0.3458
  235SOL    HW2  833   2.070   2.077   0.602 -0.8005 -0.4297  1.8838
  236SOL     OW  834   1.969   1.729   0.194 -0.2180  0.5074 -0.3802
  236SOL    HW1  835   2.056   1.714   0.158 -0.7748 -0.1358 -1.5390
  236SOL    HW2  836   1.975   1.812   0.241  1.2761 -0.0378  0.4476
  237SOL     OW  837   0.081   0.674   3.264 -0.8996 -0.4002  0.3790
  237SOL    HW1  838   0.011   0.642   3.321 -0.8811  0.2623  0.7782
  237SOL    HW2  839   0.097   0.601   3.203 -2.2813 -0.3713 -0.0509
  238SOL     OW  840   0.140   3.288   2.203  0.0396  0.2816  0.1202
  238SOL    HW1  841   0.077   3.286   2.131 -0.7467 -0.6026  0.8171
  238SOL    HW2  842   0.095   3.335   2.273  0.3387  0.0630  0.4612
  239SOL     OW  843   1.752   0.086   2.517  0.0820  0.1139  0.5623
  239SOL    HW1  844   1.704   0.123   2.590 -0.6417 -0.4143  0.3685
  239SOL    HW2  845   1.821   0.033   2.558  0.3200  0.6347  0.8438
  240SOL     OW  846   1.190   2.368   0.643  0.8195  0.2935 -0.1408
  240SOL    HW1  847   1.259   2.352   0.578 -0.2881  1.9333 -1.8367
  240SOL    HW2  848   1.127   2.298   0.629  0.7073  0.4973 -0.6960
  241SOL     OW  849   1.174   0.807   2.303  0.1700 -0.5759 -0.0996
  241SOL    HW1  850   1.149   0.897   2.327 -1.2400 -0.8732 -0.3430
  241SOL    HW2  851   1.268   0.803   2.320 -0.3873 -0.3163  4.0195
  242SOL     OW  852   0.508   1.885   0.609  0.2812  0.5505 -0.6662
  242SOL    HW1  853   0.436   1.934   0.648  1.1673  1.8038 -0.5554
  242SOL    HW2  854   0.581   1.896   0.669  0.4868 -1.0236 -0.5847
  243SOL     OW  855   3.107   2.567   1.440 -0.0895 -0.1048  0.5829
  243SOL    HW1  856   3.185   2.612   1.407 -0.6439 -0.0642 -0.7292
  243SOL    HW2  857   3.126   2.474   1.427 -0.7701 -0.0527 -1.0143
  244SOL     OW  858   1.203   2.778   2.418 -0.0861 -0.2268 -0.3618
  244SOL    HW1  859   1.221   2.871   2.401 -0.5467 -0.2423 -0.9672
  244SOL    HW2  860   1.267   2.753   2.485 -0.8371  0.8800  0.8174
  245SOL     OW  861   1.911   3.572   2.553  0.2992 -0.0275 -0.2077
  245SOL    HW1  862   1.921   3.587   2.459 -1.6348 -0.7956 -0.5881
  245SOL    HW2  863   1.983   3.513   2.576  0.0609 -0.8514 -1.4906
  246SOL     OW  864   0.394   0.878   2.491 -0.2201 -0.4896  0.0832
  246SOL    HW1  865   0.323   0.832   2.535 -0.8467 -0.5952 -1.0054
  246SOL    HW2  866   0.473   0.832   2.519 -0.8125 -2.1906 -0.8958
  247SOL     OW  867   2.720   1.275   3.063  0.3922 -0.6341 -0.7932
  247SOL    HW1  868   2.790   1.311   3.118  1.6010 -1.3057 -1.8411
  247SOL    HW2  869   2.698   1.191   3.105  0.2963 -0.4753 -0.5263
  248SOL     OW  870   1.568   1.093   1.792 -0.0742  1.0091 -0.6058
  248SOL    HW1  871   1.630   1.076   1.863 -0.1550  0.6825 -0.6092
  248SOL    HW2  872   1.619   1.080   1.712 -0.3967 -0.3120 -0.6220
  249SOL     OW  873   3.597   1.443   0.833  0.0894 -0.3838 -0.2021
  249SOL    HW1  874   3.681   1.413   0.798 -0.2157 -0.4109 -0.9281
  249SOL    HW2  875   3.545   1.363   0.844  1.1265 -0.7619  3.0462
  250SOL     OW  876   3.187   0.727   2.998  0.0162 -0.2929 -0.6957
  250SOL    HW1  877   3.265   0.688   3.037 -0.1587 -0.6955 -0.7478
  250SOL    HW2  878   3.221   0.792   2.936  0.3097 -0.4184 -0.6659
  251SOL     OW  879   3.559   0.106   2.809 -0.4699 -0.0175  0.2185
  251SOL    HW1  880   3.622   0.034   2.814 -3.0472 -2.5007 -0.5385
  251SOL    HW2  881   3.613   0.183   2.795  2.3783 -2.0757 -1.3471
  252SOL     OW  882   0.746   0.857   2.124 -0.1369 -0.1063 -0.2904
  252SOL    HW1  883   0.749   0.919   2.197 -0.9893  0.4315 -0.6996
  252SOL    HW2  884   0.794   0.900   2.054  3.0015 -1.7157  0.7066
  253SOL     OW  885   1.197   0.814   1.721  0.6569  0.2717  0.3090
  253SOL    HW1  886   1.276   0.847   1.678  0.7450  0.0707  0.3156
  253SOL    HW2  887   1.144   0.780   1.649  0.7771 -0.0085  0.3514
  254SOL     OW  888   1.305   1.427   0.037 -0.6269  0.1348 -0.0286
  254SOL    HW1  889   1.368   1.455   0.104 -0.4936  2.6393 -1.1134
  254SOL    HW2  890   1.355   1.427  -0.044 -1.6194  0.4623 -0.6506
  255SOL     OW  891   3.072   2.735   0.045 -0.4314 -0.3044  0.1908
  255SOL    HW1  892   3.048   2.761  -0.044 -0.5677  0.7155  0.5167
  255SOL    HW2  893   3.151   2.785   0.063  0.4011 -1.5561  0.1464
  256SOL     OW  894   3.242   3.228   0.040  0.0046  0.2108  0.1653
  256SOL    HW1  895   3.197   3.306   0.072  1.3515  1.4263 -0.7842
  256SOL    HW2  896   3.267   3.250  -0.050 -0.7083 -1.8230 -0.5932
  257SOL     OW  897   0.420   0.281   1.670  1.0071 -0.2074  0.5011
  257SOL    HW1  898   0.462   0.362   1.698 -0.0394  1.0648 -1.3782
  257SOL    HW2  899   0.471   0.252   1.594  0.1767 -0.1798 -0.0796
  258SOL     OW  900   2.422   2.524   0.454 -0.1183  0.0682  0.1556
  258SOL    HW1  901   2.438   2.456   0.389  0.2504 -0.3851  0.7055
  258SOL    HW2  902   2.456   2.604   0.415 -0.7665 -0.0066 -0.5959
  259SOL     OW  903   2.103   1.758   2.625 -0.4277  0.6363  0.2668
  259SOL    HW1  904   2.182   1.807   2.645  0.0217  0.7378 -1.5292
  259SOL    HW2  905   2.036   1.825   2.611 -0.8933  0.5483  1.8623
  260SOL     OW  906   1.107   3.147   1.229  1.0089  0.2775 -0.3271
  260SOL    HW1  907   1.191   3.130   1.272 -0.6211 -0.1079  3.1328
  260SOL    HW2  908   1.110   3.240   1.206  1.7741  0.7324  1.4365
  261SOL     OW  909   1.921   1.230   3.447  0.0118  0.8042  0.5025
  261SOL    HW1  910   1.872   1.310   3.466 -1.7648  0.0131 -0.4997
  261SOL    HW2  911   1.858   1.159   3.464  0.8971 -0.2734 -0.5443
  262SOL     OW  912   1.854   0.631   1.363  0.3474  0.5346 -0.3124
  262SOL    HW1  913   1.830   0.619   1.454 -1.3539 -0.7184 -0.8759
  262SOL    HW2  914   1.938   0.585   1.354 -0.8299 -1.7872  0.0282
  263SOL     OW  915   1.851   0.013   0.355  0.2115  0.0195  0.3195
  263SOL    HW1  916   1.839  -0.030   0.440 -0.0231  0.9408  0.7718
  263SOL    HW2  917   1.832   0.106   0.372 -1.6095 -0.0236 -1.1084
  264SOL     OW  918   2.766   3.068   1.083  0.3233  0.0794  0.0008
  264SOL    HW1  919   2.827   3.035   1.149 -0.9373 -1.7950  0.3061
  264SOL    HW2  920   2.779   3.011   1.008 -0.6913 -0.0203 -0.1123
  265SOL     OW  921   0.981   2.202   1.169  0.0469 -0.4903 -0.0385
  265SOL    HW1  922   0.931   2.142   1.225  0.5310 -1.9996 -1.1552
  265SOL    HW2  923   0.926   2.213   1.091 -0.3895  1.1839  0.4641
  266SOL     OW  924   1.123   2.861   0.895  0.4205  0.9892  0.1269
  266SOL    HW1  925   1.121   2.799   0.968 -0.7609  1.1354  0.2368
  266SOL    HW2  926   1.199   2.834   0.843 -0.5341 -1.0881 -0.2870
  267SOL     OW  927   1.474   1.529   2.064 -0.4052 -0.2326  0.2265
  267SOL    HW1  928   1.463   1.472   1.988 -4.0446  0.2696  0.2078
  267SOL    HW2  929   1.461   1.472   2.139  0.9218 -0.2984  0.4260
  268SOL     OW  930   1.082   0.883   1.983  0.4313  0.6918  0.0911
  268SOL    HW1  931   1.170   0.917   2.001  0.0668  1.4479  0.4657
  268SOL    HW2  932   1.089   0.844   1.896  2.2877 -3.1812  1.7320
  269SOL     OW  933   2.992   2.597   0.262 -0.4493 -0.1942 -0.5503
  269SOL    HW1  934   3.040   2.653   0.324 -0.9792 -0.7147  0.3472
  269SOL    HW2  935   3.022   2.626   0.176  1.1026 -0.1593 -0.0325
  270SOL     OW  936   2.377   3.575   3.484  0.2102 -0.0537 -0.3139
  270SOL    HW1  937   2.343   3.642   3.425 -2.0994 -2.2498 -1.7173
  270SOL    HW2  938   2.321   3.581   3.561  1.1738  0.7680  0.3331
  271SOL     OW  939   1.970   1.308   2.550 -0.0340 -0.1321  0.6392
  271SOL    HW1  940   1.906   1.366   2.593  1.3187  0.4308  1.9744
  271SOL    HW2  941   1.990   1.351   2.467  0.1687  0.7807  1.1535
  272SOL     OW  942   1.238   3.361   3.190  0.1280  0.1842 -0.3781
  272SOL    HW1  943   1.299   3.349   3.264 -1.9314  0.5445  1.4826
  272SOL    HW2  944   1.169   3.297   3.206 -0.9714  1.1127 -1.3312
  273SOL     OW  945   1.592   3.179   0.422 -0.1746  0.0740 -0.3159
  273SOL    HW1  946   1.580   3.267   0.387  1.8798  0.6134  0.1585
  273SOL    HW2  947   1.555   3.121   0.356 -0.5965  1.2581 -1.1482
  274SOL     OW  948   1.243   1.280   1.940  0.5160 -0.2352 -0.2514
  274SOL    HW1  949   1.159   1.295   1.897  0.5304  0.4327 -0.0543
  274SOL    HW2  950   1.231   1.312   2.029  1.0908  0.2430 -0.3350
  275SOL     OW  951   3.336   1.805   2.350  0.3825  0.5429 -0.0466
  275SOL    HW1  952   3.392   1.742   2.305  0.0036 -0.8103  1.2920
  275SOL    HW2  953   3.377   1.890   2.333  2.9551 -0.3768  0.9798
  276SOL     OW  954   2.011   0.423   2.481  0.0127  0.3556  0.3656
  276SOL    HW1  955   1.986   0.352   2.422 -2.5644  0.8721  0.7069
  276SOL    HW2  956   2.063   0.482   2.427 -1.7617  0.5119 -1.2785
  277SOL     OW  957   2.304   2.232   0.728 -0.2871  0.2044  0.0686
  277SOL    HW1  958   2.305   2.194   0.640 -1.0818 -0.2972  0.2655
  277SOL    HW2  959   2.364   2.307   0.723  0.8700 -0.7258 -0.4788
  278SOL     OW  960   1.487   0.492   2.790 -0.1847  0.1429  0.2255
  278SOL    HW1  961   1.406   0.441   2.781 -2.2570  3.4641 -2.2887
  278SOL    HW2  962   1.463   0.564   2.847  1.2445  0.7990  0.0216
  279SOL     OW  963   3.152   2.636   0.587  0.1586  0.7242 -0.2440
  279SOL    HW1  964   3.112   2.563   0.633 -0.1206  0.9702 -0.0963
  279SOL    HW2  965   3.236   2.602   0.556 -0.0691  0.2770 -0.3647
  280SOL     OW  966   0.861   0.638   1.212  0.5939  0.2575 -0.1273
  280SOL    HW1  967   0.782   0.604   1.170  1.4546 -0.8120 -0.9812
  280SOL    HW2  968   0.853   0.611   1.303 -0.7875  1.6377  0.2065
  281SOL     OW  969   1.531   2.129   2.702 -0.3994  0.9789 -0.1677
  281SOL    HW1  970   1.591   2.061   2.733  0.5419  0.9751 -1.8553
  281SOL    HW2  971   1.499   2.171   2.782 -1.6899 -1.9540  1.0033
  282SOL     OW  972   0.056   3.298   1.341 -0.6722  0.8203 -0.2282
  282SOL    HW1  973   0.124   3.233   1.358 -1.1909 -0.2063 -1.8389
  282SOL    HW2  974   0.051   3.349   1.422  0.5919 -0.3681  0.6530
  283SOL     OW  975   1.983   0.433   0.812 -0.1687 -0.0946 -0.8751
  283SOL    HW1  976   2.063   0.381   0.801  0.7715  1.4011 -1.3373
  283SOL    HW2  977   2.008   0.503   0.871 -1.5625 -0.4139  0.1507
  284SOL     OW  978   0.622   0.561   0.395 -0.1467  0.2909  0.0160
  284SOL    HW1  979   0.602   0.638   0.448  2.5863 -0.4222  2.3332
  284SOL    HW2  980   0.590   0.487   0.448  0.2899 -0.3297 -0.5609
  285SOL     OW  981   0.909   3.100   0.427 -0.0614 -0.5197 -0.1317
  285SOL    HW1  982   0.939   3.185   0.394 -3.5178  1.0884  0.4974
  285SOL    HW2  983   0.903   3.045   0.349 -0.8676  0.8420 -1.0548
  286SOL     OW  984   0.927   1.279   1.963  0.0558  0.2893 -0.0516
  286SOL    HW1  985   0.904   1.216   2.031  0.2565 -0.2144 -0.4408
  286SOL    HW2  986   0.947   1.359   2.011  0.8686 -0.2477  0.5463
  287SOL     OW  987   3.168   0.653   2.022 -0.4682 -0.3396 -0.2096
  287SOL    HW1  988   3.201   0.570   1.988 -2.1731 -0.6219 -1.3288
  287SOL    HW2  989   3.131   0.698   1.946 -0.4131  1.0469  0.5358
  288SOL     OW  990   2.551   0.333   1.360 -0.2808  1.0004  0.4577
  288SOL    HW1  991   2.628   0.304   1.310 -0.3868  1.2311  0.1607
  288SOL    HW2  992   2.575   0.315   1.451 -0.4455 -0.2756  0.2749
  289SOL     OW  993   2.993   1.527   2.544 -0.2072 -0.0338 -0.3333
  289SOL    HW1  994   3.003   1.562   2.456 -0.4244  1.8041  0.3239
  289SOL    HW2  995   3.040   1.444   2.543 -0.4437 -0.1824 -2.2427
  290SOL     OW  996   0.244   2.650   1.013  0.0856 -0.7568 -0.4160
  290SOL    HW1  997   0.162   2.618   0.977 -1.3590  3.5452 -1.5388
  290SOL    HW2  998   0.295   2.676   0.936  1.2706 -0.6216  0.3864
  291SOL     OW  999   1.788   3.646   1.776 -0.2231  0.1908 -0.6508
  291SOL    HW1 1000   1.848   3.598   1.719  1.5530  1.8987 -0.3097
  291SOL    HW2 1001   1.748   3.712   1.720  0.5691  1.0469 -0.2304
  292SOL     OW 1002   3.058   3.401   0.149  0.1907 -0.1759  0.1465
  292SOL    HW1 1003   2.969   3.423   0.177  0.5392  2.8630 -0.7410
  292SOL    HW2 1004   3.105   3.380   0.229 -0.3147  2.4215  1.2121
  293SOL     OW 1005   2.065   2.627   3.491  0.6700  0.1936  0.0438
  293SOL    HW1 1006   2.135   2.669   3.541  0.6412  0.1027  0.1614
  293SOL    HW2 1007   1.985   2.661   3.531  0.6316  1.2248 -0.8598
  294SOL     OW 1008   0.032   2.676   0.156  1.0310 -0.5025  0.3331
  294SOL    HW1 1009  -0.036   2.727   0.112  0.5875  0.1129  1.6699
  294SOL    HW2 1010   0.042   2.597   0.103 -1.6937 -1.2527  0.7792
  295SOL     OW 1011   1.788   3.179   2.138  0.2602  0.3217 -0.4699
  295SOL    HW1 1012   1.726   3.235   2.093  0.5437 -0.3334 -1.7374
  295SOL    HW2 1013   1.867   3.182   2.084  0.8498  0.0130  0.3394
  296SOL     OW 1014   1.872   2.423   1.210  0.6301  0.7417  0.7998
  296SOL    HW1 1015   1.820   2.428   1.131  0.7657  2.2225  0.7772
  296SOL    HW2 1016   1.892   2.330   1.220 -1.6248  0.1870  0.5773
  297SOL     OW 1017   2.318   2.549   2.176 -0.7627 -0.3721  0.6211
  297SOL    HW1 1018   2.377   2.624   2.186 -0.4312 -0.4672 -0.4960
  297SOL    HW2 1019   2.231   2.584   2.196 -1.1087  1.1914 -2.9352
  298SOL     OW 1020   0.522   3.207   2.742  0.1068  0.5089  0.0058
  298SOL    HW1 1021   0.549   3.115   2.753  0.9052  0.7446  0.1306
  298SOL    HW2 1022   0.545   3.248   2.826  0.2705  0.9368 -0.2428
  299SOL     OW 1023   2.688   0.119   0.890  0.1299 -0.0084  0.2735
  299SOL    HW1 1024   2.704   0.117   0.984  1.1378  0.0747  0.1181
  299SOL    HW2 1025   2.770   0.087   0.851  1.3283  3.7051 -0.7092
  300SOL     OW 1026   3.705   1.939   3.103  0.3292  0.6748  0.1423
  300SOL    HW1 1027   3.656   1.863   3.072  2.0303  0.1437 -1.4099
  300SOL    HW2 1028   3.735   1.913   3.191 -1.2281  0.6100  0.6834
  301SOL     OW 1029   2.540   3.041   2.197 -0.1867 -0.9707  0.3770
  301SOL    HW1 1030   2.505   3.088   2.273  0.7934  2.3267 -1.0239
  301SOL    HW2 1031   2.623   3.005   2.228  0.2449  0.4084  0.9037
  302SOL     OW 1032   3.433   1.182   0.771 -0.1148 -0.7460  0.5249
  302SOL    HW1 1033   3.393   1.146   0.693  0.7199 -0.6166  0.0207
  302SOL    HW2 1034   3.493   1.114   0.802  0.6149 -0.2522  0.2256
  303SOL     OW 1035   1.686   0.899   0.187  0.7036  0.1728 -0.3044
  303SOL    HW1 1036   1.645   0.820   0.153 -1.9586  0.3654  2.1050
  303SOL    HW2 1037   1.758   0.867   0.242 -0.8485 -0.7192  1.3044
  304SOL     OW 1038   0.298   1.114   3.676  1.0984  0.3378  0.3627
  304SOL    HW1 1039   0.251   1.183   3.722  1.6526 -0.1382  1.7038
  304SOL    HW2 1040   0.262   1.115   3.587  1.3490  2.5791  0.2235
  305SOL     OW 1041   2.983   0.771   1.849 -0.2476 -0.0636 -0.0784
  305SOL    HW1 1042   2.898   0.732   1.870 -0.1605  0.2406  0.8450
  305SOL    HW2 1043   2.984   0.855   1.895  0.5371 -0.0337 -0.1319
  306SOL     OW 1044   1.246   0.495   1.791  0.3536 -0.5455 -0.2525
  306SOL    HW1 1045   1.192   0.527   1.718  0.3791 -1.4941 -0.7075
  306SOL    HW2 1046   1.189   0.502   1.867  0.7061  1.5240 -0.1310
  307SOL     OW 1047   1.845   1.731   2.366  0.1883 -0.0658  0.5052
  307SOL    HW1 1048   1.825   1.816   2.327  0.1110  0.0818  0.8597
  307SOL    HW2 1049   1.766   1.708   2.414  0.5130  0.0619  1.1128
  308SOL     OW 1050   0.956   0.197   2.773 -0.5151  0.1481 -0.5678
  308SOL    HW1 1051   0.983   0.279   2.732 -2.6103  0.7151 -0.9241
  308SOL    HW2 1052   1.037   0.146   2.780  0.7790  2.0846 -0.6548
  309SOL     OW 1053   1.976   2.277   3.354 -0.4857 -0.6340 -0.5304
  309SOL    HW1 1054   1.898   2.293   3.301  0.0726  0.4767 -1.0559
  309SOL    HW2 1055   2.046   2.260   3.291 -0.3466 -1.9513 -0.0574
  310SOL     OW 1056   2.906   1.087  -0.013  0.0456  0.2944  0.4288
  310SOL    HW1 1057   2.900   1.040   0.070  0.6327 -1.0573 -0.2632
  310SOL    HW2 1058   2.989   1.135  -0.007 -0.5680  1.3077  1.1454
  311SOL     OW 1059   1.135   2.398   2.340  0.6548  0.3414  0.0902
  311SOL    HW1 1060   1.220   2.363   2.313 -0.2004 -0.8371 -1.2095
  311SOL    HW2 1061   1.146   2.420   2.433  1.8336 -1.5543  0.4403
  312SOL     OW 1062   1.994   1.920   3.271 -0.3671 -0.3308 -0.0107
  312SOL    HW1 1063   2.044   1.942   3.193  0.7091  1.0109  1.0076
  312SOL    HW2 1064   1.954   2.003   3.298  0.9186 -0.2764  1.9533
  313SOL     OW 1065   2.236   2.962   1.356 -1.1078 -0.3704  0.2034
  313SOL    HW1 1066   2.317   2.954   1.305 -1.0424 -1.5452  0.4702
  313SOL    HW2 1067   2.190   2.880   1.339 -2.5051  0.5025 -0.3712
  314SOL     OW 1068   3.072   0.882   0.426 -0.1593 -0.7418 -0.0746
  314SOL    HW1 1069   3.004   0.889   0.493  3.0108  1.6417  3.2542
  314SOL    HW2 1070   3.124   0.806   0.451  0.2821 -0.6489 -0.6799
  315SOL     OW 1071   1.458   0.928   0.502  0.0027 -0.5745  0.6084
  315SOL    HW1 1072   1.398   0.997   0.529 -1.0719 -1.4958  0.6684
  315SOL    HW2 1073   1.520   0.920   0.574 -1.2236 -1.1777  1.6380
  316SOL     OW 1074   3.039   3.686   0.050 -0.4293 -0.0640  0.8014
  316SOL    HW1 1075   3.024   3.725  -0.036  0.0502  1.6360  1.4390
  316SOL    HW2 1076   2.952   3.656   0.079 -1.0749  1.6832  0.7775
  317SOL     OW 1077   3.253   0.794   1.580 -0.2119  0.8999  0.3222
  317SOL    HW1 1078   3.255   0.863   1.646 -0.3561  1.8256 -0.6081
  317SOL    HW2 1079   3.162   0.792   1.549 -0.8484 -1.4228  2.0303
  318SOL     OW 1080   3.593   0.171   3.233 -0.2115 -0.0006  0.4370
  318SOL    HW1 1081   3.592   0.192   3.140  0.4505 -1.7369 -0.0156
  318SOL    HW2 1082   3.501   0.156   3.255 -0.3281 -0.0351 -0.0602
  319SOL     OW 1083   2.118   0.645   0.985  0.6689 -0.0004  0.6952
  319SOL    HW1 1084   2.156   0.659   1.071  1.1347  1.4661  0.2894
  319SOL    HW2 1085   2.179   0.688   0.925 -1.1555  1.6449 -0.0651
  320SOL     OW 1086   3.144   1.955   0.499 -0.4240  0.2766 -0.0232
  320SOL    HW1 1087   3.239   1.950   0.485 -0.0401 -0.2875  2.3119
  320SOL    HW2 1088   3.107   1.902   0.428  1.0675 -0.2654 -0.4542
  321SOL     OW 1089   1.540   1.292   0.453 -0.3533 -0.2837 -0.4827
  321SOL    HW1 1090   1.574   1.287   0.542 -1.6260  1.7993  0.1962
  321SOL    HW2 1091   1.464   1.234   0.452  1.0137 -2.1836 -0.9862
  322SOL     OW 1092   2.751   1.511   1.573 -0.3178  0.3946 -0.3338
  322SOL    HW1 1093   2.661   1.506   1.540 -1.1423  0.9587  1.6422
  322SOL    HW2 1094   2.785   1.592   1.537 -0.9895  0.7102 -0.2851
  323SOL     OW 1095   0.968   1.033   1.208  0.0561 -0.2798  0.0049
  323SOL    HW1 1096   1.021   1.109   1.233 -0.4567  0.0095  0.2209
  323SOL    HW2 1097   0.908   1.066   1.141 -0.8671 -0.2345  0.8328
  324SOL     OW 1098   3.579   2.151   3.242  1.1500  0.2026 -0.3983
  324SOL    HW1 1099   3.577   2.238   3.203  1.5263 -0.2834 -1.5572
  324SOL    HW2 1100   3.627   2.097   3.179  0.5736 -0.9379  0.0918
  325SOL     OW 1101   0.544   3.330   0.516 -0.0187  0.5117 -0.0327
  325SOL    HW1 1102   0.628   3.327   0.470 -0.5254  0.9056 -1.0184
  325SOL    HW2 1103   0.550   3.407   0.572  1.1865 -0.8135  1.7830
  326SOL     OW 1104   0.361   0.788   1.864  0.0064  0.2428  0.1533
  326SOL    HW1 1105   0.305   0.723   1.907 -2.5756 -0.3814 -3.5944
  326SOL    HW2 1106   0.314   0.871   1.874 -0.2980  0.2012 -0.7762
  327SOL     OW 1107   0.198   0.304   2.904  0.4786  0.4708  0.3897
  327SOL    HW1 1108   0.156   0.252   2.835 -1.1066 -0.1514  1.7696
  327SOL    HW2 1109   0.290   0.276   2.903  0.8605  1.4925 -2.3660
  328SOL     OW 1110   2.726   2.736   0.411 -0.4339  0.0253  0.1543
  328SOL    HW1 1111   2.755   2.764   0.324 -1.7008 -1.0075 -0.6297
  328SOL    HW2 1112   2.756   2.646   0.419  2.9816  1.1443  2.3832
  329SOL     OW 1113   2.381   3.514   2.537  0.7110 -0.2171  0.3690
  329SOL    HW1 1114   2.365   3.606   2.516 -0.2062 -0.8680 -2.0524
  329SOL    HW2 1115   2.475   3.510   2.558  1.0168  1.0863 -0.6353
  330SOL     OW 1116   0.108   1.496   0.659 -0.2531 -0.2722  0.0419
  330SOL    HW1 1117   0.104   1.561   0.730 -0.5524  0.0628 -0.2780
  330SOL    HW2 1118   0.185   1.521   0.608  0.8709 -1.4204  1.1060
  331SOL     OW 1119   1.253   2.553   0.417  0.4941 -0.0831 -0.1914
  331SOL    HW1 1120   1.198   2.581   0.491  2.0314 -0.3670  1.1180
  331SOL    HW2 1121   1.338   2.594   0.434  1.0846 -0.7357 -1.4449
  332SOL     OW 1122   1.006   1.880   3.068 -0.0533 -0.2025  0.0637
  332SOL    HW1 1123   0.974   1.790   3.070  1.3309 -0.7012  0.6534
  332SOL    HW2 1124   1.029   1.900   3.158  0.1287  0.5738 -0.1469
  333SOL     OW 1125   2.737   2.788   2.584 -0.5829  0.4121  0.1871
  333SOL    HW1 1126   2.801   2.855   2.561 -0.4984  0.0210 -0.7654
  333SOL    HW2 1127   2.755   2.767   2.676 -1.5969  2.7754  0.9981
  334SOL     OW 1128   0.154   2.926   0.264 -0.5825  0.3127 -0.5443
  334SOL    HW1 1129   0.132   3.018   0.250 -0.7448 -0.0025 -2.7578
  334SOL    HW2 1130   0.090   2.878   0.212  0.8569 -0.9469 -1.2347
  335SOL     OW 1131   2.672   1.599   0.005 -0.1853  0.1887 -0.0193
  335SOL    HW1 1132   2.627   1.665   0.058  0.1579  0.8068 -0.4825
  335SOL    HW2 1133   2.645   1.515   0.043 -0.2865  0.6048  0.8567
  336SOL     OW 1134   1.921   0.203   0.657  0.4318  0.7093  0.8001
  336SOL    HW1 1135   1.909   0.278   0.715 -0.5773 -0.1046  1.6704
  336SOL    HW2 1136   1.838   0.157   0.659  1.0186 -0.4181  0.2583
  337SOL     OW 1137   0.827   3.561   3.614  0.1886  0.1029 -0.1390
  337SOL    HW1 1138   0.791   3.478   3.583  0.4096  0.0502 -0.2580
  337SOL    HW2 1139   0.758   3.625   3.595  0.1901  0.0172 -0.4388
  338SOL     OW 1140   0.274   2.822   2.071 -0.0124 -0.4755 -0.5468
  338SOL    HW1 1141   0.190   2.808   2.116 -0.5464  1.0916 -0.9839
  338SOL    HW2 1142   0.340   2.816   2.140 -0.7585  1.2134  0.3667
  339SOL     OW 1143   1.285   2.993   3.493  0.1189  0.1265  0.3742
  339SOL    HW1 1144   1.295   3.011   3.400  0.1133 -1.0942  0.1248
  339SOL    HW2 1145   1.337   3.061   3.536  1.0063  0.0569 -0.5529
  340SOL     OW 1146   0.252   0.552   0.628 -0.7102  0.2723  0.0220
  340SOL    HW1 1147   0.340   0.543   0.664  0.4768 -0.4866 -2.7667
  340SOL    HW2 1148   0.249   0.641   0.593 -0.7896  0.0860 -0.4589
  341SOL     OW 1149   3.091   3.549   0.810  0.6104 -0.5555  0.5748
  341SOL    HW1 1150   3.051   3.463   0.798  0.2447 -0.1328 -1.5537
  341SOL    HW2 1151   3.148   3.538   0.887 -1.4507 -1.9182  2.0144
  342SOL     OW 1152   1.599   3.139   1.896 -0.3399  0.5359  0.3536
  342SOL    HW1 1153   1.635   3.224   1.870 -0.2634  0.6633  0.8687
  342SOL    HW2 1154   1.659   3.108   1.963  0.5121 -0.6243 -0.8882
  343SOL     OW 1155   1.949   0.582   2.761  0.2415 -0.4743 -0.2646
  343SOL    HW1 1156   2.003   0.660   2.757  0.6107 -0.7235 -0.1523
  343SOL    HW2 1157   1.879   0.598   2.698  0.7362 -0.3796 -0.7932
  344SOL     OW 1158   2.774   0.460   0.066  0.0859 -0.4692 -0.1270
  344SOL    HW1 1159   2.691   0.471   0.113  0.3087 -1.1504  0.4498
  344SOL    HW2 1160   2.827   0.535   0.094 -0.1558 -0.3106 -0.0931
  345SOL     OW 1161   3.505   3.508  -0.002  0.3092  0.4725 -0.0039
  345SOL    HW1 1162   3.456   3.591  -0.006 -1.2154 -0.3678  0.2557
  345SOL    HW2 1163   3.471   3.464   0.076  1.3005 -0.2875  0.0234
  346SOL     OW 1164   2.918   3.019   1.321 -0.3257 -0.0973  0.1225
  346SOL    HW1 1165   2.933   3.037   1.414  1.2492 -2.1321  0.3442
  346SOL    HW2 1166   2.879   2.931   1.320 -0.2413 -0.1353 -1.1384
  347SOL     OW 1167   0.306   3.144   0.878  0.3997  0.3174  0.0624
  347SOL    HW1 1168   0.288   3.054   0.902  0.9318 -0.5982 -2.6241
  347SOL    HW2 1169   0.319   3.142   0.783  1.6999  3.0021  0.0742
  348SOL     OW 1170   2.966   1.510   1.078  0.0443  0.3337  0.2869
  348SOL    HW1 1171   2.923   1.468   1.153  1.8376  0.2442  1.3425
  348SOL    HW2 1172   3.041   1.453   1.059  0.1866  0.9055 -0.9473
  349SOL     OW 1173   1.730   3.645   1.461  0.1422  0.1507 -0.0397
  349SOL    HW1 1174   1.814   3.601   1.447  0.6378  1.3020 -0.8427
  349SOL    HW2 1175   1.732   3.721   1.402 -1.3153  0.4025  0.1847
  350SOL     OW 1176   1.544   1.424   1.191 -0.0846  0.2891 -0.1337
  350SOL    HW1 1177   1.599   1.350   1.166 -0.3368  0.2485 -0.5712
  350SOL    HW2 1178   1.571   1.496   1.133  0.5458  0.7105  0.6584
  351SOL     OW 1179   2.212   2.348   2.349  0.2011  0.1471  0.9372
  351SOL    HW1 1180   2.119   2.329   2.341  0.6538 -1.5622 -1.4724
  351SOL    HW2 1181   2.223   2.433   2.307  0.1539 -1.3951 -2.5112
  352SOL     OW 1182   0.370   3.351   3.539 -0.3780  0.1909 -0.0267
  352SOL    HW1 1183   0.396   3.368   3.630 -1.7236  1.4271  0.1777
  352SOL    HW2 1184   0.451   3.358   3.489  0.1518  1.0155  0.9072
  353SOL     OW 1185   1.898   0.814   0.916  0.5425 -0.0378  0.2543
  353SOL    HW1 1186   1.974   0.769   0.953  1.4148 -0.9942 -2.4599
  353SOL    HW2 1187   1.823   0.764   0.947  1.2475 -1.0097  0.4540
  354SOL     OW 1188   0.992   3.636   2.896  0.4207  0.0746  0.4631
  354SOL    HW1 1189   0.945   3.714   2.867  0.9008 -0.2448 -1.2603
  354SOL    HW2 1190   0.933   3.595   2.960 -1.4433 -0.0129 -1.1990
  355SOL     OW 1191   1.089   0.275   2.367 -0.1030 -0.1971  0.1646
  355SOL    HW1 1192   1.034   0.315   2.300  0.4962 -0.5360 -0.5363
  355SOL    HW2 1193   1.140   0.348   2.403  0.4902 -0.2141 -0.6309
  356SOL     OW 1194   0.775   0.594   3.168  0.0881  0.6028 -0.2268
  356SOL    HW1 1195   0.724   0.515   3.189 -2.0091  1.9613  0.1242
  356SOL    HW2 1196   0.756   0.611   3.076 -4.6724  3.9541  0.9452
  357SOL     OW 1197   1.067   2.422   0.927  0.0805 -0.3576 -0.3551
  357SOL    HW1 1198   1.141   2.361   0.923  1.2919  0.8065  2.1811
  357SOL    HW2 1199   1.103   2.501   0.968 -2.2317  0.8172 -0.4113
  358SOL     OW 1200   0.457   1.442   0.213  0.0274  0.4970 -0.1185
  358SOL    HW1 1201   0.400   1.476   0.144 -0.9799  0.1548  0.5133
  358SOL    HW2 1202   0.534   1.499   0.212  0.1249  0.3859 -1.6384
  359SOL     OW 1203   0.609   1.639   1.758  0.9470 -0.2775  0.1280
  359SOL    HW1 1204   0.658   1.721   1.761 -0.0198  0.2964  2.9853
  359SOL    HW2 1205   0.519   1.664   1.739  0.7232 -0.6942  0.5940
  360SOL     OW 1206   1.356   2.961   1.188 -0.5678  0.3997  0.6382
  360SOL    HW1 1207   1.375   2.869   1.169 -1.2392 -0.0900  2.1887
  360SOL    HW2 1208   1.443   3.000   1.201 -0.0330  0.7882 -3.0750
  361SOL     OW 1209   2.891   1.400   3.237 -0.2878  0.6217  0.1518
  361SOL    HW1 1210   2.946   1.477   3.222  1.9589 -0.8971  0.1607
  361SOL    HW2 1211   2.866   1.406   3.329  1.2934  0.5187  0.6226
  362SOL     OW 1212   0.596   3.501   2.123 -0.2724  0.3193 -0.6622
  362SOL    HW1 1213   0.543   3.424   2.142 -0.9005  0.9482  0.2229
  362SOL    HW2 1214   0.569   3.527   2.035 -0.8234  0.1386 -0.5546
  363SOL     OW 1215   3.195   1.018   1.757 -0.3841 -0.0893 -0.2169
  363SOL    HW1 1216   3.118   1.035   1.702 -0.7093 -1.1018 -0.0999
  363SOL    HW2 1217   3.159   1.001   1.844  0.0397  0.2342  0.0269
  364SOL     OW 1218   1.385   3.667   1.734  0.3219 -0.0056 -0.7565
  364SOL    HW1 1219   1.444   3.593   1.721  1.4437  0.9250 -1.0910
  364SOL    HW2 1220   1.390   3.717   1.653  0.6574  1.1742 -0.0285
  365SOL     OW 1221   1.871   2.694   3.082 -0.1225 -0.2693 -0.0248
  365SOL    HW1 1222   1.821   2.741   3.149  1.6816 -0.9455  1.9268
  365SOL    HW2 1223   1.945   2.655   3.130  0.3700 -2.1843 -2.1400
  366SOL     OW 1224   1.667   2.158   0.042 -0.5447  0.2220  0.6896
  366SOL    HW1 1225   1.690   2.210  -0.035  0.3579 -2.2536 -0.8226
  366SOL    HW2 1226   1.571   2.159   0.044 -0.6466 -0.8552 -1.3803
  367SOL     OW 1227   1.444   3.352   1.419  0.0434 -0.4408  0.1184
  367SOL    HW1 1228   1.392   3.271   1.427  1.1299 -1.0208  1.7198
  367SOL    HW2 1229   1.391   3.419   1.462 -0.6899 -0.3484 -0.8803
  368SOL     OW 1230   2.022   3.313   2.270  0.5163 -0.0001 -0.4955
  368SOL    HW1 1231   2.114   3.340   2.274  0.3858  0.4249 -0.3043
  368SOL    HW2 1232   1.973   3.395   2.262  0.0238 -0.0556  1.3667
  369SOL     OW 1233   3.192   1.589   1.693 -0.3570  0.5094 -0.1778
  369SOL    HW1 1234   3.230   1.510   1.653  0.6714  1.5695 -1.3894
  369SOL    HW2 1235   3.125   1.617   1.631 -1.2951  0.1590  0.6510
  370SOL     OW 1236   2.078   0.977   1.556  0.1937  0.1576 -0.1834
  370SOL    HW1 1237   2.019   0.951   1.485  0.7606  0.0051 -0.6027
  370SOL    HW2 1238   2.057   0.916   1.627  1.1756 -1.1757 -0.9945
  371SOL     OW 1239   0.808   1.919   1.432  0.1939  0.4713 -0.3295
  371SOL    HW1 1240   0.776   2.009   1.426  0.2330  0.4429 -1.0866
  371SOL    HW2 1241   0.774   1.887   1.516 -0.2668  1.0186 -0.2986
  372SOL     OW 1242   1.485   0.211   3.150 -0.5196 -0.1999 -0.6384
  372SOL    HW1 1243   1.428   0.287   3.154 -0.9459 -0.4141 -2.0868
  372SOL    HW2 1244   1.573   0.247   3.137 -0.7705  0.0555 -1.7167
  373SOL     OW 1245   3.428   2.241   2.688  0.2190 -0.4036 -0.1307
  373SOL    HW1 1246   3.427   2.304   2.615  1.9619 -0.3338 -0.1337
  373SOL    HW2 1247   3.380   2.285   2.758  0.8835  0.7015 -0.3406
  374SOL     OW 1248   0.662   3.459   3.401  0.0001 -0.3106 -0.4625
  374SOL    HW1 1249   0.663   3.470   3.306 -0.3056 -4.0820 -1.0576
  374SOL    HW2 1250   0.729   3.393   3.418 -0.3006 -0.0799  1.9042
  375SOL     OW 1251   1.440   1.433   2.336  0.6310 -1.0518 -0.1358
  375SOL    HW1 1252   1.532   1.413   2.352  1.1958  2.4009  2.1036
  375SOL    HW2 1253   1.399   1.427   2.422 -0.5112  0.3018 -0.5414
  376SOL     OW 1254   0.362   3.248   1.216  0.1729  0.1243 -0.3800
  376SOL    HW1 1255   0.348   3.154   1.230 -0.1352  0.3581  0.9337
  376SOL    HW2 1256   0.324   3.264   1.129 -0.0971 -0.8874 -0.4704
  377SOL     OW 1257   2.027   3.216   3.395 -0.2088 -0.9099  0.0299
  377SOL    HW1 1258   2.039   3.123   3.377  1.2013 -0.3923 -2.0561
  377SOL    HW2 1259   2.113   3.245   3.426 -0.1328  0.0037 -0.9685
  378SOL     OW 1260   1.899   0.902   1.357  0.3885  0.9343 -0.5632
  378SOL    HW1 1261   1.848   0.951   1.293  0.7034 -0.3068 -1.8217
  378SOL    HW2 1262   1.861   0.814   1.356  0.5991  0.8061  0.7510
  379SOL     OW 1263   2.281   1.444   1.755 -0.5795  0.3761 -0.1642
  379SOL    HW1 1264   2.235   1.373   1.800  2.1828 -0.7363  1.1176
  379SOL    HW2 1265   2.247   1.441   1.665  1.3553 -4.6196 -1.0621
  380SOL     OW 1266   2.912   1.821   3.264 -0.2249 -0.7220 -0.2331
  380SOL    HW1 1267   2.825   1.809   3.302 -0.6302  3.0509  0.4011
  380SOL    HW2 1268   2.967   1.847   3.338  2.2474 -5.2846 -0.1342
  381SOL     OW 1269   1.075   2.871   1.283 -0.3894  0.3340 -0.5463
  381SOL    HW1 1270   0.992   2.902   1.318 -1.3979  0.4218 -2.8754
  381SOL    HW2 1271   1.111   2.945   1.235 -0.3731 -0.5482 -1.9498
  382SOL     OW 1272   1.540   2.627   0.461  0.0950 -0.1198  0.0750
  382SOL    HW1 1273   1.609   2.633   0.528 -0.3739  1.2220  0.4849
  382SOL    HW2 1274   1.565   2.553   0.407  1.3734 -0.2224  0.7649
  383SOL     OW 1275   1.765   1.036   1.608 -0.2518 -0.0005  0.0246
  383SOL    HW1 1276   1.789   0.943   1.615  1.4633  0.5540  3.4578
  383SOL    HW2 1277   1.827   1.071   1.544  1.4818 -0.6065  1.2895
  384SOL     OW 1278   1.691   2.458   1.016 -0.1404 -0.4871  0.1821
  384SOL    HW1 1279   1.628   2.435   1.085 -0.6266  0.0693 -0.0701
  384SOL    HW2 1280   1.728   2.374   0.989 -1.0727 -0.8804  0.0610
  385SOL     OW 1281   1.721   2.045   3.413  0.4958  0.0546 -0.0516
  385SOL    HW1 1282   1.766   1.977   3.462 -0.0362  1.1747  2.1059
  385SOL    HW2 1283   1.628   2.028   3.427  0.3536  1.2682  0.6595
  386SOL     OW 1284   1.304   3.199   1.047  0.2963  0.0386 -0.2045
  386SOL    HW1 1285   1.291   3.109   1.078  3.0492 -0.1036  0.8013
  386SOL    HW2 1286   1.381   3.193   0.991 -0.3396  1.5798 -1.2993
  387SOL     OW 1287   0.626   0.455   1.209 -0.3754 -0.3670  0.0232
  387SOL    HW1 1288   0.637   0.360   1.200  2.1784 -0.1760  0.2770
  387SOL    HW2 1289   0.597   0.468   1.299  0.3381 -0.8655  0.3338
  388SOL     OW 1290   0.984   3.292   1.734 -0.2431  0.7801  0.4014
  388SOL    HW1 1291   0.922   3.325   1.669  0.5521  1.6315  0.0445
  388SOL    HW2 1292   0.978   3.354   1.807  1.5584  2.0481 -0.4425
  389SOL     OW 1293   3.085   2.371   0.958  0.1296 -0.7430 -0.4987
  389SOL    HW1 1294   3.178   2.392   0.970  0.5964 -1.7683 -2.0194
  389SOL    HW2 1295   3.039   2.446   0.995  1.5705 -0.1256  0.1318
  390SOL     OW 1296   0.110   0.054   3.371 -0.0822 -0.0394  0.1470
  390SOL    HW1 1297   0.062   0.005   3.437 -0.6810  1.1895  0.6594
  390SOL    HW2 1298   0.043   0.101   3.322  0.3942 -0.5363 -1.0256
  391SOL     OW 1299   2.220   3.082   1.592 -0.1918 -0.1373  0.7896
  391SOL    HW1 1300   2.210   3.059   1.500 -0.0701  1.6703  0.2840
  391SOL    HW2 1301   2.314   3.093   1.603 -0.2270 -0.1302  1.0841
  392SOL     OW 1302   0.065   0.836   1.245 -0.0935 -0.2219 -0.1766
  392SOL    HW1 1303   0.125   0.873   1.181  1.2526 -0.4782  0.8972
  392SOL    HW2 1304   0.086   0.879   1.327 -2.3588  0.7093 -0.0037
  393SOL     OW 1305   3.204   1.129   1.243  0.0306  0.4794  0.1154
  393SOL    HW1 1306   3.189   1.207   1.298 -2.8970  0.8406 -1.0432
  393SOL    HW2 1307   3.220   1.164   1.156 -2.1355 -0.1796 -0.5847
  394SOL     OW 1308   2.902   1.024   3.376 -0.3956 -0.9907 -0.1786
  394SOL    HW1 1309   2.933   1.009   3.287 -1.9689 -0.0225 -0.9269
  394SOL    HW2 1310   2.828   0.964   3.386 -0.1317 -1.2089  0.5489
  395SOL     OW 1311   2.023   0.780   0.611  0.5698 -0.8430 -0.4460
  395SOL    HW1 1312   1.975   0.826   0.680  1.8229  1.9286 -1.2772
  395SOL    HW2 1313   2.114   0.780   0.641  0.8201 -1.4845 -1.1680
  396SOL     OW 1314   1.351   0.026   0.020 -0.1041 -0.0582  0.4697
  396SOL    HW1 1315   1.359   0.005   0.113  1.3878 -0.4167  0.2752
  396SOL    HW2 1316   1.298   0.106   0.018  0.1955  0.1850  1.6525
  397SOL     OW 1317   3.042   2.113   0.697 -0.1651 -0.0353  0.0312
  397SOL    HW1 1318   3.131   2.149   0.700 -0.5732  1.0017  2.3913
  397SOL    HW2 1319   3.047   2.040   0.636  2.2307  0.2178 -0.1594
  398SOL     OW 1320   3.200   3.445   3.259  0.4639  0.0617  0.3113
  398SOL    HW1 1321   3.246   3.377   3.307  0.0197 -0.4404  0.0381
  398SOL    HW2 1322   3.230   3.527   3.298  1.6405 -0.2415  0.0830
  399SOL     OW 1323   3.531   2.734   2.429  0.0269 -0.1480 -0.5580
  399SOL    HW1 1324   3.484   2.706   2.508  0.0600 -1.9829 -1.1552
  399SOL    HW2 1325   3.498   2.822   2.412 -1.5520 -0.5346  0.3060
  400SOL     OW 1326   1.740   0.267   0.286  0.3692  0.2076 -0.4600
  400SOL    HW1 1327   1.734   0.267   0.190  0.7186  1.9126 -0.5263
  400SOL    HW2 1328   1.746   0.360   0.309 -1.9708 -0.0144  1.3794
  401SOL     OW 1329   2.064   2.160   2.169 -0.2649  0.1265 -0.3089
  401SOL    HW1 1330   2.123   2.131   2.099  0.5795 -0.4240  0.6071
  401SOL    HW2 1331   2.037   2.079   2.212  0.4790  0.5513  0.9860
  402SOL     OW 1332   0.271   1.055   0.321  0.0566  0.5790 -0.3908
  402SOL    HW1 1333   0.213   1.126   0.292  0.8815  3.0565  3.2612
  402SOL    HW2 1334   0.359   1.087   0.301  0.3946 -0.2823 -0.3168
  403SOL     OW 1335   1.495   2.772   3.055 -0.6449 -0.0706  0.0002
  403SOL    HW1 1336   1.573   2.766   3.110 -0.2084 -1.2389 -0.6958
  403SOL    HW2 1337   1.475   2.681   3.034 -2.2594  0.2080  0.2335
  404SOL     OW 1338   0.599   2.312   2.553  0.0028 -0.2077 -0.5043
  404SOL    HW1 1339   0.650   2.235   2.577 -0.5350  0.1824  2.2230
  404SOL    HW2 1340   0.633   2.337   2.467 -0.1076 -3.6693 -1.7112
  405SOL     OW 1341   0.602   2.930   2.771 -0.3707  0.2479 -0.9878
  405SOL    HW1 1342   0.527   2.872   2.788 -1.3849  1.5383 -0.8490
  405SOL    HW2 1343   0.645   2.892   2.694 -1.9472  0.1744 -1.8822
  406SOL     OW 1344   1.031   1.503   0.312  0.5836  0.5501 -0.1983
  406SOL    HW1 1345   0.984   1.420   0.321  2.4241 -0.7892 -2.0541
  406SOL    HW2 1346   1.124   1.477   0.309  1.3385  2.8553  0.8288
  407SOL     OW 1347   0.591   1.902   3.141 -0.3611 -0.7235 -0.1991
  407SOL    HW1 1348   0.572   1.922   3.049  0.5267 -0.3045 -0.3062
  407SOL    HW2 1349   0.508   1.870   3.176 -0.4580 -1.9082 -1.4197
  408SOL     OW 1350   1.817   0.558   0.611  0.2535 -0.1095  0.6352
  408SOL    HW1 1351   1.866   0.503   0.672  0.2521  0.6707  1.3697
  408SOL    HW2 1352   1.872   0.637   0.601  1.1445 -0.9230 -1.7884
  409SOL     OW 1353   3.695   0.709   0.868  0.0858  0.1608  0.1963
  409SOL    HW1 1354   3.671   0.757   0.947 -1.1383 -1.2343  0.7197
  409SOL    HW2 1355   3.706   0.619   0.897  1.1007 -0.1208 -0.9792
  410SOL     OW 1356   0.783   1.463   1.678  0.0522 -0.0974 -0.5395
  410SOL    HW1 1357   0.813   1.508   1.599 -1.6754  0.2134 -1.0648
  410SOL    HW2 1358   0.721   1.524   1.718  1.7167  0.2676  1.7521
  411SOL     OW 1359   2.027   1.478   3.037 -0.0660 -0.2955 -0.4079
  411SOL    HW1 1360   2.083   1.519   2.971 -0.3091  1.4993  0.4348
  411SOL    HW2 1361   2.088   1.449   3.105  0.0112 -0.2739 -0.4677
  412SOL     OW 1362   2.663   2.558   0.102 -0.0641 -0.1037  0.0114
  412SOL    HW1 1363   2.726   2.494   0.069  0.5725 -0.3503  1.6052
  412SOL    HW2 1364   2.584   2.506   0.120 -0.3673  0.0085 -0.9465
  413SOL     OW 1365   2.011   0.679   3.728 -0.4407 -0.7257 -0.0046
  413SOL    HW1 1366   2.071   0.675   3.653 -0.0411 -1.7991  0.3535
  413SOL    HW2 1367   1.933   0.721   3.693  0.6505  1.1070 -0.3638
  414SOL     OW 1368   3.650   1.385   2.165 -0.2179 -0.0731 -0.7948
  414SOL    HW1 1369   3.743   1.398   2.183 -0.6537 -0.1135  2.0741
  414SOL    HW2 1370   3.641   1.290   2.155  0.1488  0.0038 -1.9602
  415SOL     OW 1371   2.035   0.551   0.332 -0.2086  0.0343 -0.0663
  415SOL    HW1 1372   2.056   0.515   0.418  0.1689 -0.8062 -0.4922
  415SOL    HW2 1373   2.090   0.629   0.324  0.6665 -0.5658 -0.0298
  416SOL     OW 1374   0.500   0.515   3.327 -0.0154 -0.5147 -0.6029
  416SOL    HW1 1375   0.497   0.459   3.249  0.7571 -1.3608 -0.0396
  416SOL    HW2 1376   0.418   0.496   3.373 -0.8360  0.5582 -1.5761
  417SOL     OW 1377   3.352   0.261   0.092 -0.8323 -0.0410 -0.5067
  417SOL    HW1 1378   3.366   0.266   0.186  0.4337 -1.5427 -0.5743
  417SOL    HW2 1379   3.430   0.300   0.053 -1.5292  0.9515 -0.9689
  418SOL     OW 1380   0.255   3.309   2.728 -0.6773 -0.8357  0.1450
  418SOL    HW1 1381   0.240   3.403   2.736 -1.4097 -1.0615  1.6628
  418SOL    HW2 1382   0.338   3.294   2.774 -1.1327 -1.0836  0.8967
  419SOL     OW 1383   0.094   3.556   3.015  0.0737 -0.3307  0.0375
  419SOL    HW1 1384   0.160   3.510   3.067 -0.3831 -1.9107 -0.6973
  419SOL    HW2 1385   0.024   3.575   3.077  0.2868 -0.6226  0.3733
  420SOL     OW 1386   0.761   0.174   2.972  0.2195  0.4244 -0.2383
  420SOL    HW1 1387   0.835   0.212   2.924  0.5057 -0.5630 -0.5862
  420SOL    HW2 1388   0.684   0.207   2.925  0.4936 -1.6667 -2.3384
  421SOL     OW 1389   3.667   0.437   0.210 -0.5141  0.0809 -0.2666
  421SOL    HW1 1390   3.630   0.514   0.254 -0.1318 -0.1846  0.5476
  421SOL    HW2 1391   3.761   0.455   0.207 -0.5535  0.1652 -1.1400
  422SOL     OW 1392   1.107   1.989   3.629  0.4182  0.6593 -0.7887
  422SOL    HW1 1393   1.135   2.077   3.603 -0.3012  0.3724 -2.6985
  422SOL    HW2 1394   1.183   1.933   3.610  0.0894  0.5374 -1.7821
  423SOL     OW 1395   0.527   2.572   2.103  0.4835  0.4849  0.0685
  423SOL    HW1 1396   0.573   2.559   2.020 -0.0092 -1.7262  0.0704
  423SOL    HW2 1397   0.571   2.512   2.164 -0.6630  0.3239  0.7716
  424SOL     OW 1398   0.649   1.220   1.261 -0.6352 -0.7891 -0.8245
  424SOL    HW1 1399   0.710   1.193   1.330 -0.3343 -0.0191 -0.7810
  424SOL    HW2 1400   0.703   1.225   1.182 -0.8213 -0.9333 -0.9607
  425SOL     OW 1401   0.620   2.609   3.114  1.0015 -0.4001 -0.1268
  425SOL    HW1 1402   0.545   2.575   3.066  2.2012 -0.2293 -2.2354
  425SOL    HW2 1403   0.671   2.531   3.136 -0.0690 -0.5942  1.9648
  426SOL     OW 1404   3.534   2.239   2.149  0.2407 -0.2243 -0.2195
  426SOL    HW1 1405   3.542   2.313   2.209  0.8943  1.1184 -1.8669
  426SOL    HW2 1406   3.459   2.190   2.181 -2.1780  2.8408 -0.7588
  427SOL     OW 1407   1.163   2.680   1.112 -0.1372 -0.4016  0.3717
  427SOL    HW1 1408   1.171   2.592   1.149  0.1712 -1.0072 -1.0711
  427SOL    HW2 1409   1.164   2.738   1.188  0.3246 -1.5976  1.3086
  428SOL     OW 1410   0.184   1.171   2.765  0.1831  0.1411 -0.6371
  428SOL    HW1 1411   0.099   1.213   2.777  0.6460  1.2040 -0.9633
  428SOL    HW2 1412   0.196   1.117   2.843  0.6914  2.6130  1.0778
  429SOL     OW 1413   0.799   1.890   1.825  0.1340 -0.1831 -0.3922
  429SOL    HW1 1414   0.831   1.855   1.742 -0.8517  0.7053 -1.1697
  429SOL    HW2 1415   0.800   1.985   1.813 -0.5205 -0.0606  0.4281
  430SOL     OW 1416   2.624   0.053   0.225  0.4856  0.1674  0.1266
  430SOL    HW1 1417   2.668   0.136   0.240 -2.0120  1.6831 -0.3090
  430SOL    HW2 1418   2.646   0.030   0.135  0.6939  0.6851  0.0429
  431SOL     OW 1419   2.662   2.609   1.072  0.4090 -0.1368 -0.2640
  431SOL    HW1 1420   2.689   2.589   1.161  0.0848  1.3912  0.1954
  431SOL    HW2 1421   2.670   2.525   1.025  0.5332 -0.9637  1.1888
  432SOL     OW 1422   1.616   0.218   0.022  0.5842 -0.5153  0.3433
  432SOL    HW1 1423   1.585   0.132   0.049  1.2565 -0.6145  0.8250
  432SOL    HW2 1424   1.697   0.201  -0.025 -0.8369 -0.4065 -2.3654
  433SOL     OW 1425   3.291   2.768   2.165 -0.2759 -0.2038 -0.1900
  433SOL    HW1 1426   3.295   2.710   2.241  1.0319 -0.3598 -0.3575
  433SOL    HW2 1427   3.322   2.852   2.197  0.5936 -0.3517 -0.6043
  434SOL     OW 1428   0.086   2.189   0.891 -0.4379  0.0363 -0.2199
  434SOL    HW1 1429   0.148   2.175   0.962  0.2618  2.3819 -0.2663
  434SOL    HW2 1430   0.005   2.148   0.921  0.2114 -0.1835  1.3364
  435SOL     OW 1431   2.287   1.756   1.788 -0.3372  0.6020  0.2182
  435SOL    HW1 1432   2.280   1.662   1.772  0.8958  0.1293  2.1695
  435SOL    HW2 1433   2.288   1.765   1.883  0.2483  2.5419  0.0784
  436SOL     OW 1434   1.663   2.008   0.593 -0.0899 -0.6722  0.3235
  436SOL    HW1 1435   1.657   1.955   0.514  0.1820 -1.7402  0.9940
  436SOL    HW2 1436   1.608   2.084   0.576  0.3306 -0.6568 -1.0566
  437SOL     OW 1437   0.202   1.157   3.433  0.2393 -0.0249  0.6585
  437SOL    HW1 1438   0.233   1.130   3.346  2.5865 -2.4898  2.0841
  437SOL    HW2 1439   0.108   1.139   3.432  0.4527 -1.3142 -0.9455
  438SOL     OW 1440   0.567   3.055   0.395 -0.2636  0.5149  0.5870
  438SOL    HW1 1441   0.622   3.107   0.337  0.0465 -1.0873 -0.6162
  438SOL    HW2 1442   0.536   2.983   0.341 -2.3199  0.5113  1.6534
  439SOL     OW 1443  -0.001   2.364   2.802 -0.0671  0.5039  0.6210
  439SOL    HW1 1444   0.015   2.275   2.831  1.1963  1.1402  2.0184
  439SOL    HW2 1445   0.086   2.404   2.798 -0.6641  1.9129  0.8971
  440SOL     OW 1446   1.935   1.391   0.704  0.2596 -0.3252 -0.5334
  440SOL    HW1 1447   2.007   1.376   0.766  0.3009  1.4915 -0.0887
  440SOL    HW2 1448   1.915   1.484   0.713 -0.4232 -0.2404 -2.5435
  441SOL     OW 1449   2.096   2.764   0.406 -0.2859  0.8418  0.1284
  441SOL    HW1 1450   2.159   2.751   0.477 -0.5551  4.0287  1.0914
  441SOL    HW2 1451   2.149   2.759   0.326  0.2689 -1.3190  0.5523
  442SOL     OW 1452   2.273   0.745   1.239 -0.2260  0.2791  0.4261
  442SOL    HW1 1453   2.188   0.735   1.282 -0.4553  1.1523  0.2013
  442SOL    HW2 1454   2.336   0.749   1.310 -0.5029  0.7787  0.6532
  443SOL     OW 1455   2.399   3.414   2.817  1.0287 -0.0165  0.2279
  443SOL    HW1 1456   2.485   3.374   2.819  1.9063  1.7168  3.1659
  443SOL    HW2 1457   2.413   3.501   2.780  0.4032  0.0528  0.1360
  444SOL     OW 1458   2.862   3.473   3.144 -0.0058  0.1921 -0.2368
  444SOL    HW1 1459   2.836   3.435   3.227 -1.5369 -0.6288 -1.0615
  444SOL    HW2 1460   2.938   3.421   3.116  0.1480  0.0989  0.3497
  445SOL     OW 1461   3.064   2.192   1.933  1.0926  0.0840 -0.0997
  445SOL    HW1 1462   3.130   2.136   1.973  1.5378  0.0777 -0.8172
  445SOL    HW2 1463   3.089   2.197   1.840 -1.5042 -2.2180 -1.0705
  446SOL     OW 1464   2.670   1.750   1.242 -0.1601 -0.4126  0.1923
  446SOL    HW1 1465   2.726   1.801   1.184  0.8697 -0.2060  1.3432
  446SOL    HW2 1466   2.644   1.674   1.189  0.5984 -0.1334 -0.6021
  447SOL     OW 1467   3.345   3.629   3.402 -0.3706 -0.1862 -0.1305
  447SOL    HW1 1468   3.317   3.708   3.356  3.0496 -0.3253 -2.8818
  447SOL    HW2 1469   3.360   3.658   3.492 -0.3261  2.0131 -0.7787
  448SOL     OW 1470   3.114   3.104   1.086  0.1648 -0.2377 -0.0496
  448SOL    HW1 1471   3.020   3.104   1.065 -0.2180 -1.0783  1.5149
  448SOL    HW2 1472   3.121   3.049   1.164  2.1341 -1.1861 -0.8196
  449SOL     OW 1473   0.791   3.627   0.908  0.1148 -0.1211 -0.4861
  449SOL    HW1 1474   0.867   3.668   0.949  2.1623 -0.5385 -3.5231
  449SOL    HW2 1475   0.771   3.683   0.833 -1.3289 -1.1020 -0.8791
  450SOL     OW 1476   2.450   2.233   0.974 -0.0843 -0.2970  0.3824
  450SOL    HW1 1477   2.363   2.262   1.003 -0.2379  1.1411 -1.2994
  450SOL    HW2 1478   2.436   2.207   0.882  1.2270 -0.2812  0.1655
  451SOL     OW 1479   1.277   1.132   0.486  0.4337  0.1790 -0.0612
  451SOL    HW1 1480   1.206   1.185   0.448 -0.2836 -1.1495 -0.6546
  451SOL    HW2 1481   1.262   1.138   0.581 -1.6611 -1.5416 -0.1957
  452SOL     OW 1482   3.323   2.345   1.124  0.7550  0.1028 -0.6082
  452SOL    HW1 1483   3.376   2.281   1.077  0.7716 -0.0131 -0.4276
  452SOL    HW2 1484   3.381   2.382   1.190 -0.1393 -2.0488  1.5351
  453SOL     OW 1485   1.558   0.865   2.716 -0.2067 -0.5903  0.6579
  453SOL    HW1 1486   1.534   0.953   2.744 -3.3895 -0.7308 -1.2039
  453SOL    HW2 1487   1.640   0.847   2.763 -0.7007  2.3673  2.9691
  454SOL     OW 1488   1.599   2.739   1.258  0.0958 -0.4557 -0.0378
  454SOL    HW1 1489   1.687   2.773   1.241  1.1306 -2.0230  1.8143
  454SOL    HW2 1490   1.613   2.653   1.297 -2.2270 -0.2480  1.4497
  455SOL     OW 1491   3.011   2.249   3.168 -0.3208  0.1294 -1.3174
  455SOL    HW1 1492   2.935   2.306   3.155 -1.2362 -0.5681  0.6105
  455SOL    HW2 1493   3.014   2.195   3.089 -1.0468  1.0498 -1.9972
  456SOL     OW 1494   0.573   2.171   1.893 -0.5008  0.0290 -0.8954
  456SOL    HW1 1495   0.510   2.243   1.902 -1.2495 -0.8851  2.2041
  456SOL    HW2 1496   0.520   2.092   1.901  0.6595 -0.8632 -1.6362
  457SOL     OW 1497   2.291   0.794   0.679 -0.1524  0.1877 -1.0219
  457SOL    HW1 1498   2.382   0.825   0.682 -0.5445  1.3820 -0.7022
  457SOL    HW2 1499   2.294   0.716   0.624  0.8104  1.1780 -2.4487
  458SOL     OW 1500   2.502   1.950   1.922 -0.2547  0.0812 -0.1648
  458SOL    HW1 1501   2.593   1.967   1.947 -0.5746  0.3208  0.8733
  458SOL    HW2 1502   2.495   1.854   1.924 -0.0581  0.0656 -0.1636
  459SOL     OW 1503   3.372   2.098   1.383  0.0925  0.4905 -0.4101
  459SOL    HW1 1504   3.459   2.138   1.381  1.1470 -1.6493 -2.1233
  459SOL    HW2 1505   3.381   2.024   1.442  0.1812 -1.1153 -2.3176
  460SOL     OW 1506   0.948   2.683   2.415  0.2015 -0.1419  0.1748
  460SOL    HW1 1507   0.947   2.587   2.412 -0.8943 -0.1241 -0.6161
  460SOL    HW2 1508   1.035   2.707   2.382  1.3090 -0.8791  2.3828
  461SOL     OW 1509   0.582   2.820   1.325 -0.1238  0.1733 -0.0316
  461SOL    HW1 1510   0.575   2.800   1.231 -2.5575  1.2462 -0.1413
  461SOL    HW2 1511   0.495   2.849   1.350  0.3463 -0.5108  2.7098
  462SOL     OW 1512   1.075   2.626   0.662 -0.2610 -0.1796  0.5439
  462SOL    HW1 1513   1.110   2.538   0.679  0.6874 -0.2760 -1.6232
  462SOL    HW2 1514   1.151   2.683   0.667 -0.8173  0.4891  1.5717
  463SOL     OW 1515   1.150   1.691   2.499  0.2615  0.2693  0.5319
  463SOL    HW1 1516   1.067   1.712   2.543 -0.1600 -1.2164  0.4948
  463SOL    HW2 1517   1.217   1.733   2.554 -0.4319  0.4880  1.2332
  464SOL     OW 1518   2.094   1.471   2.001 -0.4258 -0.1077 -0.0425
  464SOL    HW1 1519   2.041   1.545   2.031  0.7939  0.7781 -0.0025
  464SOL    HW2 1520   2.161   1.511   1.946  0.1008 -1.2294 -0.2383
  465SOL     OW 1521   1.964   1.451   2.302 -0.8256 -0.2285  0.4641
  465SOL    HW1 1522   1.993   1.523   2.358  0.2158  0.0716 -0.4269
  465SOL    HW2 1523   2.035   1.439   2.239 -0.9087 -2.1455  0.6707
  466SOL     OW 1524   2.090   0.398   2.877  0.0186 -0.2971 -0.1874
  466SOL    HW1 1525   2.051   0.408   2.964  0.1215  0.7445 -0.2399
  466SOL    HW2 1526   2.080   0.485   2.837  3.4584  0.4425  0.2664
  467SOL     OW 1527   0.626   3.688   1.374  0.5959  0.4579 -0.1274
  467SOL    HW1 1528   0.591   3.628   1.439  0.6093  0.1250 -0.4273
  467SOL    HW2 1529   0.657   3.632   1.302 -0.4397  0.8580 -0.9180
  468SOL     OW 1530   1.347   1.199   1.223  0.4788 -0.3692  0.2716
  468SOL    HW1 1531   1.262   1.227   1.186  1.0859 -1.7696 -2.4224
  468SOL    HW2 1532   1.404   1.275   1.211  0.8019 -0.9451 -2.3816
  469SOL     OW 1533   2.161   1.190   1.709 -0.5164  0.5362  0.0676
  469SOL    HW1 1534   2.127   1.104   1.683 -0.7290  0.4909  0.4976
  469SOL    HW2 1535   2.256   1.179   1.707 -0.5070  0.6963 -1.2544
  470SOL     OW 1536   2.797   2.331   2.582  0.2678 -1.1002  0.0619
  470SOL    HW1 1537   2.883   2.317   2.542 -0.7919 -1.6974 -2.1871
  470SOL    HW2 1538   2.762   2.408   2.537 -1.2487 -2.1807 -0.7032
  471SOL     OW 1539   1.075   0.430   1.029 -0.6145  0.0598 -0.2776
  471SOL    HW1 1540   1.160   0.423   1.073  0.0254  0.6328 -1.3591
  471SOL    HW2 1541   1.018   0.371   1.077  0.2959 -0.0348  0.7271
  472SOL     OW 1542   3.451   0.408   0.926 -0.0218 -0.8625  0.0738
  472SOL    HW1 1543   3.465   0.501   0.942 -1.5252 -0.9492  2.4249
  472SOL    HW2 1544   3.369   0.404   0.876 -0.0290 -0.9176  0.0890
  473SOL     OW 1545   0.102   3.308   1.698 -0.3816 -0.0488 -0.2624
  473SOL    HW1 1546   0.063   3.386   1.658 -0.0187  1.2699  1.8280
  473SOL    HW2 1547   0.156   3.270   1.628 -2.1050  0.4188 -1.9310
  474SOL     OW 1548   0.132   0.277   0.588 -0.3368  0.6397  0.2371
  474SOL    HW1 1549   0.096   0.239   0.668 -0.3920  0.8870  0.3334
  474SOL    HW2 1550   0.162   0.364   0.615 -1.7637  1.3466 -0.3349
  475SOL     OW 1551   2.332   1.506   3.546 -0.0636 -0.4388  0.7586
  475SOL    HW1 1552   2.390   1.444   3.501  0.1976  1.0162 -1.0405
  475SOL    HW2 1553   2.387   1.548   3.611 -0.0688 -1.5670  1.5285
  476SOL     OW 1554   1.666   3.536   0.484  0.0995  0.2201 -0.2277
  476SOL    HW1 1555   1.591   3.519   0.541 -0.8231  0.4437 -1.3441
  476SOL    HW2 1556   1.642   3.496   0.400  1.3279  0.0977 -0.5388
  477SOL     OW 1557   3.295   1.961   0.201 -0.2901 -0.6741 -0.7510
  477SOL    HW1 1558   3.330   2.008   0.277  0.6544 -0.9035 -1.0259
  477SOL    HW2 1559   3.262   2.029   0.143  0.9903 -0.3259 -1.1056
  478SOL     OW 1560   1.906   2.259   3.079 -0.4639  0.2643 -0.7704
  478SOL    HW1 1561   1.994   2.240   3.112 -1.3486 -1.8130  0.6421
  478SOL    HW2 1562   1.920   2.302   2.995  1.9385 -1.3775 -1.3176
  479SOL     OW 1563   1.658   1.264   3.191  0.0394 -0.5886  0.8119
  479SOL    HW1 1564   1.633   1.355   3.205 -0.0429 -0.5494  0.4035
  479SOL    HW2 1565   1.752   1.268   3.172  0.3238 -0.7128  2.0922
  480SOL     OW 1566   1.935   1.338   1.615  0.5551 -0.0768 -0.5140
  480SOL    HW1 1567   2.013   1.285   1.600 -0.8740 -1.9610 -1.7765
  480SOL    HW2 1568   1.940   1.408   1.551  1.4653  0.1575 -0.2030
  481SOL     OW 1569   3.234   0.979   2.874  0.3402 -0.0431 -0.3127
  481SOL    HW1 1570   3.207   0.911   2.812 -0.4025  0.3261 -0.4022
  481SOL    HW2 1571   3.152   1.022   2.899  0.8379  1.0261 -0.4954
  482SOL     OW 1572   3.526   3.080   2.799  0.0817  0.6721  0.6748
  482SOL    HW1 1573   3.542   3.106   2.890 -0.1866 -0.0879  0.9444
  482SOL    HW2 1574   3.613   3.078   2.759  0.0785  2.5442  0.4675
  483SOL     OW 1575   1.201   0.766   3.178  0.1949 -0.3216  0.3870
  483SOL    HW1 1576   1.262   0.693   3.178 -0.9755 -1.3393 -0.3729
  483SOL    HW2 1577   1.197   0.793   3.086 -1.2305 -0.9259  0.2559
  484SOL     OW 1578   2.788   0.317   0.567 -0.2330  0.9988  0.2244
  484SOL    HW1 1579   2.811   0.277   0.483 -2.1900  0.2233  0.0064
  484SOL    HW2 1580   2.717   0.263   0.601 -0.6494  2.3108  1.5665
  485SOL     OW 1581   2.598   1.143   0.961  0.6260 -0.5479 -0.0950
  485SOL    HW1 1582   2.550   1.137   0.878  1.0335 -0.3953 -0.3451
  485SOL    HW2 1583   2.587   1.056   1.000  0.9778 -0.8370 -0.6175
  486SOL     OW 1584   2.798   2.638   0.828  0.5857  0.1622  0.6306
  486SOL    HW1 1585   2.890   2.615   0.821  0.7336  0.6382  0.9270
  486SOL    HW2 1586   2.782   2.644   0.923  0.0916 -0.5418  0.5947
  487SOL     OW 1587   0.541   1.258   3.592 -0.4711  0.5700 -0.0536
  487SOL    HW1 1588   0.607   1.195   3.565 -0.8023 -0.2485  0.9711
  487SOL    HW2 1589   0.499   1.218   3.669 -1.7560  1.3251 -0.3271
  488SOL     OW 1590   1.440   0.065   1.169  0.4089 -0.2806  0.0223
  488SOL    HW1 1591   1.436   0.103   1.257  2.1828  0.7987 -0.3058
  488SOL    HW2 1592   1.490  -0.016   1.180  0.3324 -0.3222  0.0635
  489SOL     OW 1593   0.724   2.774   3.609  0.0387  0.0998  0.3884
  489SOL    HW1 1594   0.673   2.776   3.528 -1.0702 -0.6615  1.0575
  489SOL    HW2 1595   0.669   2.816   3.674  0.7178  0.2516  0.8801
  490SOL     OW 1596   0.099   2.873   2.259  0.3231  0.4260  0.2217
  490SOL    HW1 1597   0.126   2.843   2.346 -0.2684  0.3469  0.3830
  490SOL    HW2 1598   0.060   2.796   2.218 -1.1033  0.9037  0.5985
  491SOL     OW 1599   1.450   2.447   2.834  0.0310 -0.3496  0.0858
  491SOL    HW1 1600   1.375   2.463   2.892  0.4543 -0.3199  0.6288
  491SOL    HW2 1601   1.521   2.420   2.892  0.4495 -0.3739 -0.4245
  492SOL     OW 1602   0.611  -0.012   2.818  0.2116 -0.1272  0.0242
  492SOL    HW1 1603   0.673   0.032   2.876 -1.0709  1.6785  0.0964
  492SOL    HW2 1604   0.628   0.025   2.731  1.2654 -1.9005 -0.5911
  493SOL     OW 1605   2.640   3.541   2.961  0.0918  0.1636  0.5595
  493SOL    HW1 1606   2.552   3.541   2.999  0.3957  1.0502  1.2711
  493SOL    HW2 1607   2.697   3.511   3.031  0.4792  0.4437  0.3674
  494SOL     OW 1608   3.079   0.152   3.542  0.0663 -0.1435  0.1438
  494SOL    HW1 1609   3.153   0.209   3.521  1.2205 -1.6853 -0.1368
  494SOL    HW2 1610   3.004   0.211   3.546  1.3806  1.5522  0.9989
  495SOL     OW 1611   0.907   3.159   1.054 -0.3615  0.5779 -0.1418
  495SOL    HW1 1612   0.858   3.231   1.093 -1.4906 -0.7477  0.9800
  495SOL    HW2 1613   0.960   3.125   1.126 -1.3617 -0.9675 -0.0969
  496SOL     OW 1614   1.223   2.476   3.355  0.1429  0.0454  0.5257
  496SOL    HW1 1615   1.134   2.442   3.360 -0.4563  1.3205 -0.5325
  496SOL    HW2 1616   1.215   2.568   3.383  0.6788  0.8057 -1.6083
  497SOL     OW 1617   2.933   2.216   0.156 -0.0988 -0.0980  0.0035
  497SOL    HW1 1618   2.969   2.277   0.221 -0.6278 -0.3002  0.4937
  497SOL    HW2 1619   3.010   2.173   0.119  0.2409  0.4036  0.1160
  498SOL     OW 1620   1.548   2.024   2.223  0.6261 -0.1381 -0.0274
  498SOL    HW1 1621   1.507   2.067   2.148 -2.3103 -0.3633  1.3058
  498SOL    HW2 1622   1.529   1.931   2.211  1.3610 -0.3471  0.3212
  499SOL     OW 1623   2.672   1.399   0.624  0.4734  0.0080 -0.3664
  499SOL    HW1 1624   2.722   1.321   0.597  2.5899  0.4801  1.8380
  499SOL    HW2 1625   2.700   1.416   0.714 -2.2553  1.5528  0.3217
  500SOL     OW 1626   0.316   1.800   2.957 -0.1625  0.3173 -0.2161
  500SOL    HW1 1627   0.287   1.864   2.893 -1.7808  0.8582  0.9933
  500SOL    HW2 1628   0.287   1.716   2.921 -3.3005  0.8084  0.8400
  501SOL     OW 1629   1.225   3.578   1.404  0.4049 -1.3607 -0.5843
  501SOL    HW1 1630   1.235   3.564   1.310 -2.0284 -0.4069 -1.0507
  501SOL    HW2 1631   1.131   3.569   1.420  0.7352 -1.3368  1.7415
  502SOL     OW 1632   2.352   0.155   0.132 -0.1585 -0.0563  0.0510
  502SOL    HW1 1633   2.295   0.231   0.139  0.0541  0.1378 -0.2695
  502SOL    HW2 1634   2.393   0.147   0.218  2.4521  2.3020 -0.8368
  503SOL     OW 1635   2.154   2.883   2.096  0.6320 -0.8974  0.4072
  503SOL    HW1 1636   2.144   2.833   2.016  1.0883  0.4083 -0.5057
  503SOL    HW2 1637   2.245   2.870   2.123  1.5372  1.3202 -1.2286
  504SOL     OW 1638   1.345   0.409   1.140  0.7642  0.1674  0.5534
  504SOL    HW1 1639   1.332   0.322   1.103 -2.8458  0.5005  0.6808
  504SOL    HW2 1640   1.398   0.394   1.219  1.7350 -1.6125 -0.3842
  505SOL     OW 1641   0.254   3.552   1.526 -0.1660  0.3399  0.6109
  505SOL    HW1 1642   0.336   3.533   1.479  0.6308  0.0162  2.0611
  505SOL    HW2 1643   0.243   3.647   1.517 -1.1250  0.0478 -1.8913
  506SOL     OW 1644   0.484   0.834   3.127 -0.6711  0.1830 -0.0607
  506SOL    HW1 1645   0.466   0.761   3.186  0.1852  0.2918  0.3485
  506SOL    HW2 1646   0.479   0.796   3.040 -0.2079 -0.3749  0.1472
  507SOL     OW 1647   3.362   3.141   2.570 -0.0025 -0.0619 -0.3379
  507SOL    HW1 1648   3.272   3.160   2.599 -0.1902 -0.9147 -0.3557
  507SOL    HW2 1649   3.415   3.149   2.649  0.2716  2.5649 -0.6819
  508SOL     OW 1650   0.538   1.352   2.951  0.1372 -0.6485 -0.4187
  508SOL    HW1 1651   0.515   1.313   3.036  0.6184  1.3930  0.7209
  508SOL    HW2 1652   0.454   1.358   2.904 -1.2601  2.9688  2.0673
  509SOL     OW 1653   2.730   0.652   1.190  0.0336 -0.3434  0.4329
  509SOL    HW1 1654   2.651   0.597   1.192  0.1190 -0.5094 -0.3980
  509SOL    HW2 1655   2.793   0.605   1.246 -0.8046  0.3675  2.0329
  510SOL     OW 1656   0.541   1.765   2.314  0.6392 -0.1674 -1.0689
  510SOL    HW1 1657   0.490   1.834   2.357  1.8629  0.3924 -0.4538
  510SOL    HW2 1658   0.509   1.765   2.224 -0.0401  0.5660 -0.8440
  511SOL     OW 1659   0.208   1.170   0.686  0.0070 -0.6927  0.0095
  511SOL    HW1 1660   0.157   1.179   0.606  1.9446  2.0962 -1.0981
  511SOL    HW2 1661   0.169   1.233   0.747  1.2705  0.5529 -0.4170
  512SOL     OW 1662   3.260   1.099   0.967  0.2129 -0.1816  0.0300
  512SOL    HW1 1663   3.325   1.037   1.001  1.2736  1.1581  0.5637
  512SOL    HW2 1664   3.310   1.154   0.906 -0.4990  0.6860  0.2114
  513SOL     OW 1665   0.293   2.125   1.064  0.0868  0.6210  0.6941
  513SOL    HW1 1666   0.297   2.033   1.040 -1.0504  0.4683  1.0356
  513SOL    HW2 1667   0.371   2.164   1.024 -0.1647 -0.2091 -0.6420
  514SOL     OW 1668   2.611   0.536   2.375  0.1582  0.6244  0.0348
  514SOL    HW1 1669   2.562   0.453   2.371 -0.9228  1.2959 -2.5663
  514SOL    HW2 1670   2.687   0.522   2.320  0.2927  1.1779  0.0739
  515SOL     OW 1671   1.839   3.114   2.818  0.9282  0.2418  0.1899
  515SOL    HW1 1672   1.803   3.096   2.905 -1.2623 -0.1614 -0.7290
  515SOL    HW2 1673   1.804   3.200   2.795  0.1085 -0.3633 -0.9277
  516SOL     OW 1674   3.659   1.174   0.560 -0.1925  0.1700 -0.6150
  516SOL    HW1 1675   3.655   1.085   0.526  0.4602  0.1927 -0.7491
  516SOL    HW2 1676   3.630   1.229   0.487  0.4800  0.1575 -0.8967
  517SOL     OW 1677   2.519   2.313   2.564  0.6213 -0.0931 -0.3487
  517SOL    HW1 1678   2.602   2.264   2.562  1.0162  0.5725 -1.2072
  517SOL    HW2 1679   2.537   2.392   2.512  0.2580  1.3884  1.6323
  518SOL     OW 1680   3.270   2.338   1.799 -0.3133  0.1869 -0.4781
  518SOL    HW1 1681   3.344   2.398   1.793  0.6033  0.0825  4.7637
  518SOL    HW2 1682   3.299   2.259   1.753  1.2772  1.4068 -1.6657
  519SOL     OW 1683   2.008   2.491   1.446 -0.0058 -0.4723  0.6036
  519SOL    HW1 1684   1.951   2.472   1.372  0.6281 -0.4357  0.0917
  519SOL    HW2 1685   2.050   2.407   1.466  0.1202 -0.3964  0.6583
  520SOL     OW 1686   2.451   0.895   2.612  0.6546  0.2996  0.3981
  520SOL    HW1 1687   2.426   0.811   2.575  1.4656  0.5204 -0.7203
  520SOL    HW2 1688   2.403   0.960   2.560 -0.4470  0.5288  1.6535
  521SOL     OW 1689   0.658   2.298   0.180  0.8783 -0.0234  0.2156
  521SOL    HW1 1690   0.707   2.254   0.111  1.4374 -0.4195  0.8457
  521SOL    HW2 1691   0.720   2.362   0.216  0.3510  0.6934 -0.1311
  522SOL     OW 1692   2.310   1.531   2.332  0.4349  0.1853  0.0705
  522SOL    HW1 1693   2.345   1.582   2.405 -2.2680  1.0879  0.8582
  522SOL    HW2 1694   2.361   1.560   2.256  2.1243  0.5312  1.2630
  523SOL     OW 1695   0.660   0.059   3.430  0.7224 -0.2235 -0.7801
  523SOL    HW1 1696   0.662   0.142   3.381 -0.5240 -0.9325 -2.0853
  523SOL    HW2 1697   0.568   0.035   3.433  0.7328 -0.2038  2.0188
  524SOL     OW 1698   0.038   3.217   1.065  0.2770  0.5246  0.0999
  524SOL    HW1 1699   0.016   3.124   1.069  0.0517  0.5788  0.1366
  524SOL    HW2 1700   0.063   3.239   1.155 -0.8334  0.7799  0.3603
  525SOL     OW 1701   2.239   1.659   3.015  0.1365 -0.2359 -0.5668
  525SOL    HW1 1702   2.279   1.577   2.985 -1.9745 -1.5517 -0.0128
  525SOL    HW2 1703   2.245   1.717   2.940  3.0079 -0.3022 -0.5226
  526SOL     OW 1704   1.154   0.140   1.396 -0.6198 -0.2239  0.0513
  526SOL    HW1 1705   1.120   0.138   1.486  0.3685 -2.7333  0.4515
  526SOL    HW2 1706   1.234   0.087   1.399  1.9389  3.1357 -1.4260
  527SOL     OW 1707   0.396   1.496   0.503  0.1393 -0.2138  0.2778
  527SOL    HW1 1708   0.477   1.546   0.503  0.2705 -0.4200 -0.0249
  527SOL    HW2 1709   0.369   1.493   0.411 -1.7001  2.2111  0.6341
  528SOL     OW 1710   0.212   0.694   0.030 -0.1588 -0.3371  0.1734
  528SOL    HW1 1711   0.295   0.742   0.026 -1.4419  2.0541  0.1303
  528SOL    HW2 1712   0.215   0.636  -0.046  0.3966  1.6720 -1.4442
  529SOL     OW 1713   0.020   0.474   1.071  0.4959 -0.0116  0.0611
  529SOL    HW1 1714  -0.021   0.517   1.146 -2.2942  1.1867 -1.9768
  529SOL    HW2 1715   0.112   0.502   1.076 -0.0000  1.5723  1.9509
  530SOL     OW 1716   1.572   2.679   1.893  0.0706  0.2160 -0.0263
  530SOL    HW1 1717   1.495   2.684   1.836 -1.6253 -0.0093  2.1009
  530SOL    HW2 1718   1.641   2.643   1.837 -0.7028  2.4323 -2.6060
  531SOL     OW 1719   3.005   2.394   0.697  0.6337 -0.4501 -0.2197
  531SOL    HW1 1720   3.044   2.422   0.780  2.2887  0.9881 -1.4122
  531SOL    HW2 1721   3.048   2.311   0.678  2.4529  0.5944 -0.9822
  532SOL     OW 1722   3.276   1.466   2.443  0.7206 -0.1660 -0.1656
  532SOL    HW1 1723   3.270   1.436   2.534 -2.6596  0.5961 -0.0014
  532SOL    HW2 1724   3.325   1.548   2.448 -1.4983  1.2021  1.4808
  533SOL     OW 1725   0.494   2.250   3.661 -0.3073 -1.1063  0.6226
  533SOL    HW1 1726   0.521   2.279   3.748 -1.8933 -0.3055  0.8972
  533SOL    HW2 1727   0.417   2.195   3.677  0.2579 -2.1758 -0.1893
  534SOL     OW 1728   0.748   2.801   0.209 -0.7909 -0.3994  0.6982
  534SOL    HW1 1729   0.778   2.765   0.293 -0.1758 -0.8701  0.2900
  534SOL    HW2 1730   0.814   2.867   0.186 -0.8440 -0.4183  0.4888
  535SOL     OW 1731   0.077   2.708   3.244  0.0075  0.3878  0.0967
  535SOL    HW1 1732   0.148   2.772   3.253 -0.7837  1.3834 -0.3763
  535SOL    HW2 1733   0.001   2.762   3.219 -1.3915 -0.3872  2.4448
  536SOL     OW 1734   2.518   0.857   3.601  0.5212  0.1467  0.1129
  536SOL    HW1 1735   2.508   0.792   3.532 -0.2027  0.9405 -0.5386
  536SOL    HW2 1736   2.478   0.936   3.567  3.2375  1.6060  0.0272
  537SOL     OW 1737   2.048   3.124   3.088  0.3771 -0.1646 -0.2171
  537SOL    HW1 1738   1.958   3.103   3.110  0.0626  0.5084 -0.7846
  537SOL    HW2 1739   2.063   3.081   3.003  1.0812 -1.4913  0.5516
  538SOL     OW 1740   0.173   0.773   1.529  0.0533 -0.3943  0.0263
  538SOL    HW1 1741   0.128   0.809   1.605 -0.1236  1.4178 -0.8869
  538SOL    HW2 1742   0.241   0.837   1.508  1.1281 -1.6319 -0.4202
  539SOL     OW 1743   0.089   3.101   2.431 -0.0607  0.2687  0.5055
  539SOL    HW1 1744   0.103   3.118   2.338 -0.9835  0.4015  0.3796
  539SOL    HW2 1745   0.052   3.013   2.435 -1.4069  0.8199  0.6112
  540SOL     OW 1746   3.643   2.229   1.373 -0.2190  0.3226  0.0942
  540SOL    HW1 1747   3.702   2.156   1.394  1.9595  1.0755 -2.7587
  540SOL    HW2 1748   3.681   2.304   1.420 -0.6275  0.2346  0.5656
  541SOL     OW 1749   2.451   1.094   1.714 -0.0837  0.0106  0.2396
  541SOL    HW1 1750   2.489   1.105   1.627 -0.4833 -1.3641 -0.1305
  541SOL    HW2 1751   2.482   1.009   1.744 -1.0454 -0.1435  0.8637
  542SOL     OW 1752   1.293   3.073   3.207  0.0035  0.4246 -0.8130
  542SOL    HW1 1753   1.260   2.986   3.182 -0.8635  0.8506 -1.1575
  542SOL    HW2 1754   1.303   3.119   3.124  0.4785  0.6576 -0.6281
  543SOL     OW 1755   2.067   1.351   0.381  0.3043 -0.5693 -0.7983
  543SOL    HW1 1756   1.997   1.376   0.321  0.5256  4.0112  0.4972
  543SOL    HW2 1757   2.024   1.339   0.465  0.8161  0.7619 -0.3208
  544SOL     OW 1758   2.894   2.874   1.684 -0.0895  0.0958 -0.0587
  544SOL    HW1 1759   2.924   2.793   1.642 -2.7461 -2.2009  2.0566
  544SOL    HW2 1760   2.934   2.871   1.771  0.2166  1.3823 -0.1410
  545SOL     OW 1761   2.192   0.658   2.242 -0.9297 -0.3118  0.3608
  545SOL    HW1 1762   2.115   0.674   2.187 -0.2502  0.7222 -0.3193
  545SOL    HW2 1763   2.227   0.575   2.209 -1.2724 -0.3572  0.1063
  546SOL     OW 1764   2.964   2.607   2.535  0.5679 -0.2986  0.3654
  546SOL    HW1 1765   2.969   2.590   2.441 -0.1933 -0.9980  0.4369
  546SOL    HW2 1766   3.045   2.653   2.556  1.0796 -0.7861 -0.5011
  547SOL     OW 1767   1.101   1.226   1.678 -0.0186  0.5225  0.1516
  547SOL    HW1 1768   1.102   1.200   1.586 -0.0847  1.7368 -0.2067
  547SOL    HW2 1769   1.168   1.172   1.719  1.3286  1.2834 -0.9930
  548SOL     OW 1770   3.501   0.363   2.996 -0.4117 -0.0721  0.6483
  548SOL    HW1 1771   3.490   0.457   2.989 -0.0354  0.2545  3.1960
  548SOL    HW2 1772   3.512   0.332   2.906  0.4434  2.4211 -0.1814
  549SOL     OW 1773   0.469   0.729   3.534 -0.7199 -0.1106  0.4020
  549SOL    HW1 1774   0.446   0.798   3.595 -0.6014 -1.0130  1.4868
  549SOL    HW2 1775   0.390   0.676   3.525  0.5659 -3.1700  4.0763
  550SOL     OW 1776   1.583   0.258   0.997 -0.0162 -0.2160  0.0193
  550SOL    HW1 1777   1.530   0.204   1.056  1.6457 -1.1539  0.7203
  550SOL    HW2 1778   1.603   0.200   0.924 -0.5974  0.3943 -0.6405
  551SOL     OW 1779   0.255   3.147   1.524 -0.2072  0.2178  0.1841
  551SOL    HW1 1780   0.286   3.109   1.606  0.3252 -1.6783 -0.8248
  551SOL    HW2 1781   0.287   3.088   1.457 -0.6237  1.7228 -1.4153
  552SOL     OW 1782   2.966   0.418   0.796 -0.3184 -0.1622 -0.0574
  552SOL    HW1 1783   2.893   0.386   0.848 -0.3740 -1.0576 -0.6741
  552SOL    HW2 1784   2.944   0.395   0.706  0.5306 -0.0676 -0.3003
  553SOL     OW 1785   1.198   1.877   3.279 -0.5395  0.3996  0.2193
  553SOL    HW1 1786   1.134   1.820   3.320 -1.0983  1.4035  0.7580
  553SOL    HW2 1787   1.261   1.817   3.239 -0.3024 -0.6081  2.0160
  554SOL     OW 1788   1.112   0.618   2.109  0.1365  1.0635  0.0207
  554SOL    HW1 1789   1.127   0.670   2.188  0.2292 -0.0371  0.7478
  554SOL    HW2 1790   1.115   0.682   2.037 -1.1946  2.2734  0.9972
  555SOL     OW 1791   3.208   1.211   0.045 -0.5244 -0.3851  0.5931
  555SOL    HW1 1792   3.165   1.220  -0.040 -0.0854  1.3682  0.5281
  555SOL    HW2 1793   3.200   1.118   0.066 -2.1804 -0.5383 -0.5405
  556SOL     OW 1794   2.436   2.218   3.329  1.2565 -0.2894 -0.1218
  556SOL    HW1 1795   2.518   2.221   3.279 -0.9665 -1.2435 -4.3104
  556SOL    HW2 1796   2.416   2.124   3.336 -0.7961 -0.0680 -1.9001
  557SOL     OW 1797   0.574   1.606   2.027  0.0740  0.4897 -0.2478
  557SOL    HW1 1798   0.582   1.622   1.933 -1.5976  0.9416 -0.3429
  557SOL    HW2 1799   0.487   1.569   2.038  0.5372 -0.2907  1.0534
  558SOL     OW 1800   0.175   0.788   2.854 -0.0651 -0.0105  0.3215
  558SOL    HW1 1801   0.096   0.788   2.908  0.6057  0.0970  1.3215
  558SOL    HW2 1802   0.144   0.765   2.766 -1.1247 -0.5584  0.8243
  559SOL     OW 1803   1.865   2.367   2.352 -0.0052 -0.0371  0.0643
  559SOL    HW1 1804   1.843   2.343   2.262  0.1819 -1.0510  0.2744
  559SOL    HW2 1805   1.785   2.352   2.401 -0.0505  0.3316  0.1090
  560SOL     OW 1806   1.076   3.329   0.620  1.1802  0.1292 -0.6779
  560SOL    HW1 1807   1.100   3.253   0.673  0.7844  0.7104  0.3666
  560SOL    HW2 1808   0.996   3.363   0.662  2.1361  1.9624 -0.2329
  561SOL     OW 1809   1.509   1.765   2.241 -0.0639 -0.6708 -0.0824
  561SOL    HW1 1810   1.417   1.781   2.260  0.3305  1.9631  0.0416
  561SOL    HW2 1811   1.509   1.697   2.174 -2.1155 -0.4357 -0.3772
  562SOL     OW 1812   0.679   1.567   0.495  0.3156  0.3877 -0.1223
  562SOL    HW1 1813   0.743   1.629   0.530 -0.3523  0.3638  1.2253
  562SOL    HW2 1814   0.729   1.512   0.435  1.2664  1.1948 -0.0988
  563SOL     OW 1815   0.718   3.013   1.984 -0.0914 -0.4275 -0.0542
  563SOL    HW1 1816   0.790   2.962   1.948 -1.5288 -2.2094 -0.5464
  563SOL    HW2 1817   0.684   2.960   2.056 -1.7939 -0.3491 -0.7458
  564SOL     OW 1818   3.199   1.885   3.066 -0.2284 -1.0909 -0.4242
  564SOL    HW1 1819   3.129   1.901   3.002 -0.2495  0.0105 -0.1495
  564SOL    HW2 1820   3.277   1.922   3.025 -0.5682  1.3258  0.8671
  565SOL     OW 1821   2.975   2.557   1.088 -0.1405  0.3549 -0.3454
  565SOL    HW1 1822   2.932   2.558   1.174  0.0319  0.4116 -0.2590
  565SOL    HW2 1823   3.055   2.608   1.101 -0.1094  0.3548 -0.5382
  566SOL     OW 1824   3.528   1.860   1.180 -0.8386  0.5670  0.4906
  566SOL    HW1 1825   3.520   1.827   1.269 -2.6069 -0.4822 -0.0077
  566SOL    HW2 1826   3.441   1.846   1.141  0.0150  0.5467 -1.5434
  567SOL     OW 1827   3.056   1.932   0.951 -0.0828  0.3982  1.0047
  567SOL    HW1 1828   2.985   1.969   0.899  0.0527 -1.4395 -0.6203
  567SOL    HW2 1829   3.132   1.934   0.892  0.3535 -0.7233  1.5001
  568SOL     OW 1830   0.084   2.457   1.508 -0.2491  0.0969 -0.1856
  568SOL    HW1 1831   0.042   2.523   1.563 -0.3335 -0.4103  0.3697
  568SOL    HW2 1832   0.178   2.467   1.527 -0.0223  1.5521 -1.7819
  569SOL     OW 1833   2.017   0.151   3.094 -0.2840  0.0379 -0.2986
  569SOL    HW1 1834   1.954   0.080   3.108  0.3834 -0.2621  1.5379
  569SOL    HW2 1835   1.967   0.230   3.115 -0.2406 -0.1459  0.5341
  570SOL     OW 1836   1.908   0.284   2.288 -0.4027  0.0761  0.0192
  570SOL    HW1 1837   1.920   0.241   2.204  0.3598 -3.0794  1.5943
  570SOL    HW2 1838   1.841   0.233   2.333 -1.0496  1.8808  1.2447
  571SOL     OW 1839   2.602   2.842   0.953  0.2722 -1.0606 -0.2090
  571SOL    HW1 1840   2.619   2.762   1.003  1.3932 -0.4130  0.5032
  571SOL    HW2 1841   2.689   2.874   0.930 -0.0645  0.7291  0.7954
  572SOL     OW 1842   2.984   1.537   3.537  0.1410 -0.4821  0.6050
  572SOL    HW1 1843   2.917   1.469   3.539  0.7268 -1.1723 -1.1724
  572SOL    HW2 1844   2.938   1.617   3.562 -0.6495 -1.4150  2.3475
  573SOL     OW 1845   0.017   1.134   2.031 -0.0313 -0.5611  0.3259
  573SOL    HW1 1846   0.102   1.096   2.013 -0.3589 -0.9874 -0.3955
  573SOL    HW2 1847   0.011   1.209   1.972 -0.5977 -1.2043 -0.4657
  574SOL     OW 1848   2.413   2.651   0.907  0.4961 -0.6424  0.1458
  574SOL    HW1 1849   2.488   2.711   0.904 -0.4814  0.5549 -1.0009
  574SOL    HW2 1850   2.439   2.579   0.849  1.2508 -0.8678  0.7327
  575SOL     OW 1851   3.566   1.927   3.717  0.4017 -0.0633 -0.1376
  575SOL    HW1 1852   3.552   2.000   3.656 -0.1459 -0.2926 -0.2946
  575SOL    HW2 1853   3.490   1.871   3.705 -0.0911  0.2554  1.3009
  576SOL     OW 1854   2.060   0.546   3.400  0.1851  0.2514 -0.3725
  576SOL    HW1 1855   2.050   0.628   3.449  0.2517  0.5348 -0.8285
  576SOL    HW2 1856   2.140   0.558   3.349  0.5168 -0.3279 -0.0027
  577SOL     OW 1857   2.922   0.535   1.333  0.3000 -0.3791  0.1844
  577SOL    HW1 1858   2.987   0.476   1.372  0.2857 -1.0569 -0.7765
  577SOL    HW2 1859   2.969   0.577   1.261  0.9250  2.3320  2.0261
  578SOL     OW 1860   3.429   0.117   0.938  0.4386 -0.4360  0.1924
  578SOL    HW1 1861   3.478   0.140   1.017  1.8535  0.6839 -0.9420
  578SOL    HW2 1862   3.383   0.197   0.914  1.0477 -0.3549 -0.7919
  579SOL     OW 1863   2.349   1.508   1.228  0.1484 -0.4056  0.5161
  579SOL    HW1 1864   2.429   1.488   1.181  1.0039 -1.7312  2.3965
  579SOL    HW2 1865   2.365   1.592   1.271 -1.1534  1.5337 -2.4891
  580SOL     OW 1866   1.483   2.592   3.653 -0.2227 -0.8995  0.2059
  580SOL    HW1 1867   1.444   2.631   3.731 -2.0264 -1.0585 -0.5871
  580SOL    HW2 1868   1.412   2.546   3.610  0.5977 -0.4168 -1.7985
  581SOL     OW 1869   3.362   0.974   2.106 -0.3070 -0.2342  0.0341
  581SOL    HW1 1870   3.455   0.952   2.095 -1.3015 -4.0538 -3.4641
  581SOL    HW2 1871   3.325   0.899   2.153 -1.8105  0.6859  0.3798
  582SOL     OW 1872   1.543   1.899   1.039 -0.0485 -0.7768 -0.2720
  582SOL    HW1 1873   1.519   1.978   0.989  2.1884  0.0011 -0.2064
  582SOL    HW2 1874   1.470   1.888   1.101 -1.1760  0.3011 -1.3391
  583SOL     OW 1875   2.302   1.156   3.063 -0.3055 -0.2401 -0.6352
  583SOL    HW1 1876   2.347   1.076   3.035 -0.4525 -0.8502  0.7773
  583SOL    HW2 1877   2.213   1.126   3.084 -0.3121  0.2642  0.0673
  584SOL     OW 1878   0.587   0.988   1.018  0.3338 -0.1986 -0.4526
  584SOL    HW1 1879   0.677   0.994   0.987  0.6696  0.3313  0.5974
  584SOL    HW2 1880   0.555   1.079   1.017  0.8662  0.1064  2.1516
  585SOL     OW 1881   0.964   0.268   1.218  0.0503  0.7613  0.1689
  585SOL    HW1 1882   0.915   0.336   1.266 -0.3569 -1.4391  3.1752
  585SOL    HW2 1883   1.027   0.235   1.282  0.1712 -1.7328 -1.1331
  586SOL     OW 1884   3.042   2.135   1.148 -0.3033 -0.9123 -0.5672
  586SOL    HW1 1885   3.055   2.197   1.076  1.1075  0.4035  0.7199
  586SOL    HW2 1886   3.016   2.054   1.106 -2.1601  0.5136 -2.3399
  587SOL     OW 1887   1.168   1.098   3.267 -0.0732  0.4263  0.2021
  587SOL    HW1 1888   1.164   1.003   3.281 -1.2589  0.3961 -0.2877
  587SOL    HW2 1889   1.078   1.125   3.252  0.3349  1.5316 -0.4049
  588SOL     OW 1890   3.561   2.586   3.378  0.7334 -0.1315  0.1734
  588SOL    HW1 1891   3.467   2.599   3.367  0.7407  0.5477  0.8538
  588SOL    HW2 1892   3.601   2.658   3.329  0.8976 -0.1759  0.2408
  589SOL     OW 1893   0.964   1.470   2.405  0.2224 -0.2400 -0.1839
  589SOL    HW1 1894   1.015   1.544   2.373 -0.4679  0.6944  0.7932
  589SOL    HW2 1895   0.901   1.509   2.465 -1.0105 -1.4713 -0.6232
  590SOL     OW 1896   2.856   0.303   3.507  0.1894  0.6297 -0.3475
  590SOL    HW1 1897   2.826   0.326   3.419  0.2555 -1.1129 -0.8504
  590SOL    HW2 1898   2.816   0.369   3.564 -0.2589  1.4865 -1.6153
  591SOL     OW 1899   1.434   1.255   3.048 -0.1666 -0.6452  0.3390
  591SOL    HW1 1900   1.519   1.260   3.091 -0.5925  2.0321  1.0634
  591SOL    HW2 1901   1.371   1.274   3.118 -1.1013  0.5386 -0.7564
  592SOL     OW 1902   0.978   3.275   3.169 -0.2261 -0.2838 -0.0968
  592SOL    HW1 1903   0.920   3.346   3.195 -0.4783 -0.6264  0.2821
  592SOL    HW2 1904   0.966   3.266   3.075  0.1062  0.4415 -0.2134
  593SOL     OW 1905   2.704   0.608   0.579 -0.2115  0.1291  0.6571
  593SOL    HW1 1906   2.688   0.527   0.531 -1.7458  0.5390  0.4113
  593SOL    HW2 1907   2.784   0.644   0.540 -1.7710  0.8113 -2.2072
  594SOL     OW 1908   0.949   2.143   0.849  0.3858  0.3411  1.2157
  594SOL    HW1 1909   0.946   2.238   0.840 -2.2325  0.0946 -2.6377
  594SOL    HW2 1910   0.860   2.118   0.873  0.8145 -1.2490  1.2855
  595SOL     OW 1911   0.757   2.002   1.128 -0.3093  0.1024 -0.3012
  595SOL    HW1 1912   0.688   1.992   1.193  1.0386  0.4474  1.2483
  595SOL    HW2 1913   0.724   2.070   1.069 -1.7560 -0.5409 -0.2637
  596SOL     OW 1914   0.974   2.730   3.319  0.2048 -0.5614 -0.1849
  596SOL    HW1 1915   0.964   2.820   3.287 -3.5656 -0.1554  1.6041
  596SOL    HW2 1916   1.010   2.740   3.407 -0.3470 -0.7516  0.0685
  597SOL     OW 1917   2.535   0.187   0.646 -0.6714 -0.3002 -0.1347
  597SOL    HW1 1918   2.499   0.098   0.641  1.1539 -1.2373  1.7852
  597SOL    HW2 1919   2.546   0.202   0.740 -3.0343  2.9221 -0.1864
  598SOL     OW 1920   2.534   1.197   2.759 -0.0446 -0.3141  0.1723
  598SOL    HW1 1921   2.501   1.234   2.677 -0.9659  1.7405  1.3975
  598SOL    HW2 1922   2.628   1.217   2.758  0.0997 -0.9747 -0.6942
  599SOL     OW 1923   0.860   1.201   1.428 -0.7161 -0.2898 -0.4061
  599SOL    HW1 1924   0.830   1.195   1.518  0.5354  0.9755  0.1376
  599SOL    HW2 1925   0.952   1.229   1.435  0.0508 -2.1290 -2.0081
  600SOL     OW 1926   2.553   3.288   1.741 -0.4856  0.2625  0.7321
  600SOL    HW1 1927   2.525   3.213   1.794  2.6013 -2.1999 -0.7585
  600SOL    HW2 1928   2.510   3.277   1.657 -0.3774  0.4031  0.6568
  601SOL     OW 1929   2.179   0.765   0.207  0.6388  0.1382  0.5257
  601SOL    HW1 1930   2.270   0.773   0.179 -0.1218  1.0423 -2.0417
  601SOL    HW2 1931   2.135   0.724   0.132 -1.0246 -0.5214  1.8167
  602SOL     OW 1932   2.190   1.003   0.908  0.4368  0.5253 -0.0784
  602SOL    HW1 1933   2.254   0.977   0.974  0.2531 -0.6532 -0.3537
  602SOL    HW2 1934   2.226   0.972   0.825  1.2788  3.0939 -0.7568
  603SOL     OW 1935   1.993   1.645   1.796  0.5123 -0.0909 -0.3042
  603SOL    HW1 1936   1.978   1.560   1.755 -0.2987 -0.6092  0.9949
  603SOL    HW2 1937   1.910   1.666   1.838  1.4801  0.0842  1.6272
  604SOL     OW 1938   1.103   2.077   2.218 -0.0487 -0.0364 -0.5380
  604SOL    HW1 1939   1.174   2.065   2.281 -1.2612 -1.9527  0.5752
  604SOL    HW2 1940   1.147   2.100   2.136  1.8070 -0.5536  0.2657
  605SOL     OW 1941   1.983   1.703   2.101  0.0160  0.2322  0.4507
  605SOL    HW1 1942   1.953   1.776   2.046 -4.2608 -2.4732 -1.3930
  605SOL    HW2 1943   1.933   1.712   2.182  1.3413  0.6370  1.2428
  606SOL     OW 1944   3.030   2.580   3.240 -0.2152  0.1467  0.3773
  606SOL    HW1 1945   2.944   2.537   3.240  0.3115 -0.9379  0.4162
  606SOL    HW2 1946   3.039   2.615   3.151 -0.2400 -0.6962  0.0345
  607SOL     OW 1947   3.328   0.648   2.678  0.1553 -0.2870 -0.2768
  607SOL    HW1 1948   3.273   0.718   2.644 -0.0609  0.5325  1.6072
  607SOL    HW2 1949   3.367   0.607   2.601  2.2523  3.4614 -1.4560
  608SOL     OW 1950   0.331   2.823   3.282 -0.6781  0.7388  0.4573
  608SOL    HW1 1951   0.340   2.882   3.356 -0.6754  0.8866  0.3410
  608SOL    HW2 1952   0.341   2.735   3.319  1.7067  0.8620  0.3002
  609SOL     OW 1953   3.002   3.077   3.611 -0.0556  0.4266  0.2462
  609SOL    HW1 1954   3.058   3.025   3.668 -1.0597 -0.8202  0.1261
  609SOL    HW2 1955   2.948   3.013   3.565 -0.7791  1.5338 -0.4931
  610SOL     OW 1956   0.032   1.460   1.448  0.3244 -0.2656  0.5066
  610SOL    HW1 1957   0.047   1.487   1.358 -0.2861  0.2671  0.5524
  610SOL    HW2 1958   0.114   1.420   1.476  0.5403 -0.3733 -0.2588
  611SOL     OW 1959   1.907   1.222   3.049  0.2001  0.5158  0.0698
  611SOL    HW1 1960   1.938   1.312   3.055  2.6005 -0.2140 -0.1562
  611SOL    HW2 1961   1.951   1.187   2.972 -0.2949 -0.9819  0.4334
  612SOL     OW 1962   2.534   0.323   2.547 -0.1051  0.7259 -0.1938
  612SOL    HW1 1963   2.487   0.343   2.466  0.2789  3.7913  0.2245
  612SOL    HW2 1964   2.465   0.319   2.614 -0.3060 -0.7279 -0.4524
  613SOL     OW 1965   1.491   2.407   1.204  0.3947  0.2320 -0.4515
  613SOL    HW1 1966   1.553   2.346   1.244 -0.6331 -0.4674  0.1399
  613SOL    HW2 1967   1.416   2.407   1.264 -0.0349  1.3088 -0.9719
  614SOL     OW 1968   1.594   1.602   0.993  0.5148  0.1064  0.2666
  614SOL    HW1 1969   1.630   1.599   0.905 -0.1967  0.8518 -0.0586
  614SOL    HW2 1970   1.597   1.695   1.018 -2.9936  0.5953 -0.5842
  615SOL     OW 1971   1.282   2.887   2.061 -0.3012  0.5443 -0.1647
  615SOL    HW1 1972   1.286   2.967   2.008 -0.7865  0.1434 -0.8169
  615SOL    HW2 1973   1.200   2.895   2.109 -0.1241  0.6542  0.1197
  616SOL     OW 1974   0.743   2.369   3.196  0.6580  0.1056 -0.3780
  616SOL    HW1 1975   0.821   2.318   3.176  0.1812 -1.1053  0.7070
  616SOL    HW2 1976   0.672   2.305   3.198 -0.5534  1.3208 -2.2678
  617SOL     OW 1977   0.629   2.128   3.427 -0.1033  0.3443 -0.1440
  617SOL    HW1 1978   0.725   2.128   3.427 -0.0681 -0.4604 -1.3826
  617SOL    HW2 1979   0.604   2.154   3.515  1.2906 -2.8070  1.3465
  618SOL     OW 1980   1.030   1.677   3.613  0.8596 -0.2133  0.2333
  618SOL    HW1 1981   1.125   1.683   3.601  0.9113 -0.5755  0.4314
  618SOL    HW2 1982   1.017   1.678   3.708  0.3859  3.4574  0.2474
  619SOL     OW 1983   2.962   1.150   0.953 -0.8223  0.4914  0.2261
  619SOL    HW1 1984   2.949   1.108   1.038  0.2546  0.8770  0.6035
  619SOL    HW2 1985   3.056   1.148   0.939 -0.9594  0.6998 -0.8310
  620SOL     OW 1986   3.451   0.883   2.480  0.2574 -0.1812 -0.8103
  620SOL    HW1 1987   3.461   0.833   2.399 -0.6612 -1.5256 -0.1451
  620SOL    HW2 1988   3.365   0.924   2.473 -0.6372 -1.7798  0.1988
  621SOL     OW 1989   0.098   1.540   0.260  0.2508  0.2354  0.4205
  621SOL    HW1 1990   0.018   1.570   0.219  0.6795 -0.6726 -1.1772
  621SOL    HW2 1991   0.099   1.582   0.346 -2.3830 -0.4625  0.8747
  622SOL     OW 1992   2.129   1.895   2.325  0.0116  0.2979 -0.2165
  622SOL    HW1 1993   2.050   1.850   2.355 -0.0068  0.0685 -0.5949
  622SOL    HW2 1994   2.201   1.850   2.369  0.0276 -0.4164 -0.9478
  623SOL     OW 1995   0.252   2.962   2.897 -0.0568  0.4540 -0.0789
  623SOL    HW1 1996   0.214   2.981   2.811  0.5105  2.4514  0.0506
  623SOL    HW2 1997   0.344   2.942   2.879  0.0204  0.7001  0.0294
  624SOL     OW 1998   2.753   0.804   3.478  0.2206  0.2134  0.0513
  624SOL    HW1 1999   2.803   0.734   3.521  1.3328  2.2506  2.3101
  624SOL    HW2 2000   2.678   0.819   3.535 -2.8004 -2.1852 -2.8469
  625SOL     OW 2001   2.974   3.639   0.396  0.1083 -0.6966  0.4884
  625SOL    HW1 2002   2.997   3.701   0.327  1.2929 -0.8636  0.7197
  625SOL    HW2 2003   2.901   3.589   0.359  0.7581 -0.8202 -0.6587
  626SOL     OW 2004   3.373   3.304   0.833  0.2369  0.5029 -0.1500
  626SOL    HW1 2005   3.374   3.398   0.811  0.8020  0.6889  0.6621
  626SOL    HW2 2006   3.337   3.301   0.921  2.4177  0.1674  0.7835
  627SOL     OW 2007   1.193   3.066   0.528 -0.1090 -0.2591 -0.1070
  627SOL    HW1 2008   1.147   2.994   0.485  0.7262 -0.6437 -0.3757
  627SOL    HW2 2009   1.135   3.141   0.516 -0.2108 -0.5066 -1.3192
  628SOL     OW 2010   0.815   2.165   1.780 -0.5914  0.6251 -0.3209
  628SOL    HW1 2011   0.816   2.220   1.701 -0.4796 -1.1334 -1.6160
  628SOL    HW2 2012   0.724   2.170   1.811 -1.1816 -0.2589 -1.7945
  629SOL     OW 2013   3.048   2.329   0.408  0.2193  0.2996 -0.0063
  629SOL    HW1 2014   2.967   2.278   0.416  0.3316 -0.4580 -2.7399
  629SOL    HW2 2015   3.027   2.413   0.448 -1.4258 -0.3904  0.6701
  630SOL     OW 2016   1.068   0.775   1.250 -0.1252 -0.1405  0.0965
  630SOL    HW1 2017   1.034   0.858   1.215  0.6066  0.0530 -0.1724
  630SOL    HW2 2018   1.008   0.709   1.217 -0.7462  0.2837  0.3520
  631SOL     OW 2019   0.787   3.500   0.454 -0.4592 -0.5690 -0.2647
  631SOL    HW1 2020   0.779   3.557   0.377 -0.5464 -1.1154 -0.6676
  631SOL    HW2 2021   0.868   3.529   0.497 -1.4259  1.0644  0.5569
  632SOL     OW 2022   3.282   1.379   3.107  0.3377  0.6474  0.0102
  632SOL    HW1 2023   3.193   1.414   3.098  0.2044  0.1332 -0.8099
  632SOL    HW2 2024   3.303   1.346   3.020 -0.0168 -2.4758  0.9977
  633SOL     OW 2025   0.824   2.587   1.246  0.1388 -0.1271 -0.0808
  633SOL    HW1 2026   0.789   2.570   1.334 -1.0213  0.2922 -0.4427
  633SOL    HW2 2027   0.763   2.650   1.208  2.3349  2.1231 -0.0943
  634SOL     OW 2028   3.485   2.498   2.904 -0.0574  0.2421  0.5434
  634SOL    HW1 2029   3.525   2.580   2.934 -0.4745  0.1328  1.4345
  634SOL    HW2 2030   3.559   2.444   2.876  0.1597  1.2302 -0.8631
  635SOL     OW 2031   3.493   1.774   1.430  0.5025  0.1260  0.1770
  635SOL    HW1 2032   3.564   1.799   1.490 -0.2179  0.7607  0.7880
  635SOL    HW2 2033   3.414   1.785   1.482 -0.0420 -0.7545 -0.4394
  636SOL     OW 2034   2.960   1.235   2.379 -0.1426  0.5347 -0.1170
  636SOL    HW1 2035   2.870   1.203   2.389  0.3301 -0.7631  0.1765
  636SOL    HW2 2036   3.005   1.167   2.330  1.3502 -0.1611  2.0377
  637SOL     OW 2037   0.639   3.388   2.439  0.0471  0.1407  0.3602
  637SOL    HW1 2038   0.639   3.436   2.356  0.6947 -0.0150  0.2684
  637SOL    HW2 2039   0.550   3.401   2.474  0.3640  1.8705  0.6175
  638SOL     OW 2040   0.289   1.486   1.827  0.0151 -0.1546  0.2623
  638SOL    HW1 2041   0.314   1.436   1.905  3.5271 -1.0693 -1.2557
  638SOL    HW2 2042   0.201   1.455   1.806 -0.6027 -0.6503  3.1998
  639SOL     OW 2043   0.669   0.960   1.622 -0.2715 -0.2983  0.2775
  639SOL    HW1 2044   0.725   0.946   1.546 -1.2484  1.5448 -0.8340
  639SOL    HW2 2045   0.697   1.044   1.658  0.6056 -1.4092  2.4072
  640SOL     OW 2046   0.645   3.209   1.241  0.5217 -0.9127  0.1180
  640SOL    HW1 2047   0.688   3.156   1.309 -0.6934 -1.5783  0.3976
  640SOL    HW2 2048   0.551   3.201   1.260  0.2693  0.8444 -0.2231
  641SOL     OW 2049   0.050   2.458   0.712 -0.1182 -0.7882 -0.1442
  641SOL    HW1 2050   0.036   2.453   0.807 -1.5262 -1.9436 -0.3896
  641SOL    HW2 2051   0.137   2.421   0.699  0.4026  0.0542  0.7518
  642SOL     OW 2052   2.130   3.705   0.718  0.0368  0.0636 -0.0149
  642SOL    HW1 2053   2.123   3.764   0.643  3.7639  2.1079  0.9690
  642SOL    HW2 2054   2.169   3.625   0.682  1.1587  0.7651 -0.4067
  643SOL     OW 2055   3.655   1.265   2.777 -0.0549 -0.0842 -0.0944
  643SOL    HW1 2056   3.636   1.226   2.691 -0.3170 -0.4367  0.1203
  643SOL    HW2 2057   3.607   1.348   2.777 -2.1890 -1.2399  0.6805
  644SOL     OW 2058   3.704   1.596   2.404 -0.3317 -0.1483 -0.0259
  644SOL    HW1 2059   3.620   1.571   2.366 -0.1915  0.5568 -0.8351
  644SOL    HW2 2060   3.716   1.687   2.377  0.6353 -0.2005  0.1863
  645SOL     OW 2061   0.220   2.700   1.278  0.1882 -0.3140 -0.2921
  645SOL    HW1 2062   0.244   2.688   1.186  1.0701  1.2043 -0.2868
  645SOL    HW2 2063   0.129   2.671   1.283 -0.0060 -0.0142 -1.7318
  646SOL     OW 2064   0.866   0.124   0.733  0.5095  0.0340  0.3813
  646SOL    HW1 2065   0.880   0.182   0.658 -0.5322  0.2310  0.3368
  646SOL    HW2 2066   0.931   0.055   0.721  0.9541  0.5409 -0.2155
  647SOL     OW 2067   1.834   3.388   3.320  0.3285  0.0687  0.1380
  647SOL    HW1 2068   1.913   3.333   3.322  0.4373  0.2324  0.4675
  647SOL    HW2 2069   1.849   3.449   3.248  0.3483 -0.1317 -0.0264
  648SOL     OW 2070   0.109   3.078   3.382  0.6586  0.8917  0.5446
  648SOL    HW1 2071   0.041   3.144   3.369  0.2837  0.6246  1.0960
  648SOL    HW2 2072   0.171   3.093   3.312 -1.3368 -0.5849 -1.7062
  649SOL     OW 2073   3.196   0.503   1.372  0.4883 -0.2741  0.7253
  649SOL    HW1 2074   3.187   0.584   1.322  2.5679 -0.8881 -0.8006
  649SOL    HW2 2075   3.258   0.525   1.442  0.6777 -0.4223  0.6044
  650SOL     OW 2076   3.654   1.373   3.643 -0.2520 -0.0697 -0.3524
  650SOL    HW1 2077   3.749   1.357   3.641 -0.0256  0.6391  1.6619
  650SOL    HW2 2078   3.639   1.440   3.576  0.1850 -2.0916 -2.6013
  651SOL     OW 2079   2.146   2.469   0.413 -0.2467  0.5897 -0.0188
  651SOL    HW1 2080   2.220   2.510   0.457  0.9040 -1.4312  0.0393
  651SOL    HW2 2081   2.152   2.501   0.322  1.0211  0.0513 -0.1392
  652SOL     OW 2082   2.778   2.518   1.329  0.0262  0.2979  0.4685
  652SOL    HW1 2083   2.790   2.424   1.321 -1.1035  0.2818 -1.7117
  652SOL    HW2 2084   2.712   2.528   1.398 -0.1090 -0.5211  0.4619
  653SOL     OW 2085   0.626   2.805   1.642  0.0348 -0.1048  0.1058
  653SOL    HW1 2086   0.633   2.900   1.633 -1.0394 -0.0311 -0.0732
  653SOL    HW2 2087   0.567   2.792   1.716 -0.8905 -0.6170 -0.7006
  654SOL     OW 2088   1.925   1.593   3.289  0.1173  0.0843  0.4278
  654SOL    HW1 2089   1.953   1.588   3.197  0.1340 -0.9821  0.4869
  654SOL    HW2 2090   1.875   1.675   3.294 -1.8572 -0.9276 -1.0902
  655SOL     OW 2091   1.366   1.879   0.173  0.1528 -0.2060  0.3991
  655SOL    HW1 2092   1.442   1.923   0.212  0.0089 -1.6801  2.5412
  655SOL    HW2 2093   1.342   1.813   0.238 -1.8049 -1.0408 -1.1009
  656SOL     OW 2094   0.715   3.296   0.248 -0.3220  0.0027 -0.5450
  656SOL    HW1 2095   0.733   3.374   0.300 -0.8611 -0.9218  1.1000
  656SOL    HW2 2096   0.788   3.291   0.186 -0.8970  2.4669 -1.5520
  657SOL     OW 2097   0.179   2.147   3.080  0.0843 -0.4384 -0.0875
  657SOL    HW1 2098   0.159   2.055   3.065  0.1375 -0.3126 -0.9729
  657SOL    HW2 2099   0.232   2.173   3.005 -0.2147  0.3988 -0.0247
  658SOL     OW 2100   1.718   1.333   2.318  0.1795  0.2765 -0.4895
  658SOL    HW1 2101   1.797   1.385   2.305  0.8752 -1.0154 -1.7402
  658SOL    HW2 2102   1.703   1.290   2.234 -2.8896  1.7934 -0.8754
  659SOL     OW 2103   3.705   0.517   1.832  0.2819  0.0806 -0.3624
  659SOL    HW1 2104   3.755   0.571   1.894  0.9014  0.1839 -0.9401
  659SOL    HW2 2105   3.615   0.545   1.843  0.0614 -1.1877  1.8500
  660SOL     OW 2106   2.418   1.253   2.518  0.3310  0.1160  0.0245
  660SOL    HW1 2107   2.377   1.204   2.447 -0.3927  0.3357  0.2770
  660SOL    HW2 2108   2.460   1.327   2.474  2.3015 -1.2201 -0.4741
  661SOL     OW 2109   3.593   0.467   3.369  0.7754 -0.4279 -0.5102
  661SOL    HW1 2110   3.549   0.457   3.453  0.6613  0.4228 -0.4665
  661SOL    HW2 2111   3.602   0.377   3.336  1.2505 -0.8064  0.6130
  662SOL     OW 2112   0.830   0.842   0.979 -0.1916  0.2186  0.5219
  662SOL    HW1 2113   0.839   0.813   0.888  2.3602  1.0453  0.4250
  662SOL    HW2 2114   0.783   0.771   1.022  0.3560 -1.1502 -1.0201
  663SOL     OW 2115   2.795   2.094   2.690 -0.1269  0.3616 -0.6644
  663SOL    HW1 2116   2.877   2.049   2.667 -0.6153 -0.8820 -0.0809
  663SOL    HW2 2117   2.802   2.179   2.647  0.6377 -0.4341 -2.2401
  664SOL     OW 2118   1.041   0.422   0.330 -0.1874 -0.1439 -0.4105
  664SOL    HW1 2119   0.979   0.495   0.325 -1.1158 -0.9148 -0.5509
  664SOL    HW2 2120   1.110   0.452   0.388 -0.3580  0.9902 -0.7817
  665SOL     OW 2121   1.319   0.782   1.132  0.1230  0.2159 -0.9571
  665SOL    HW1 2122   1.225   0.769   1.146  0.1335  1.2123  0.1646
  665SOL    HW2 2123   1.353   0.809   1.217  1.7261 -1.6171 -0.9328
  666SOL     OW 2124   2.115   3.382   3.054  0.1148  0.5763 -0.7153
  666SOL    HW1 2125   2.085   3.432   2.978 -1.3716  0.0641 -0.5079
  666SOL    HW2 2126   2.074   3.296   3.044 -1.2204  0.8842  1.2800
  667SOL     OW 2127   0.847   1.301   0.347  0.6125  0.2322 -0.1753
  667SOL    HW1 2128   0.861   1.247   0.270  0.3915 -0.4328  0.2481
  667SOL    HW2 2129   0.852   1.241   0.421 -3.6854 -0.0453  0.1465
  668SOL     OW 2130   2.827   3.488   3.420 -0.6309 -0.1375 -0.0394
  668SOL    HW1 2131   2.759   3.551   3.443 -0.3685  0.1212  0.0332
  668SOL    HW2 2132   2.788   3.403   3.436 -0.7033  0.0210  0.6656
  669SOL     OW 2133   3.221   3.363   0.397 -0.0316  0.1727  0.2676
  669SOL    HW1 2134   3.251   3.280   0.436  0.4566  0.8983  1.4995
  669SOL    HW2 2135   3.126   3.360   0.408  0.0989  0.4482  1.8076
  670SOL     OW 2136   0.852   3.641   2.397 -0.3125 -0.1647  0.3348
  670SOL    HW1 2137   0.931   3.685   2.428 -0.6128  0.1689  0.6349
  670SOL    HW2 2138   0.854   3.555   2.438 -0.0121 -0.2278  0.1933
  671SOL     OW 2139   2.710   1.069   2.460 -0.6450 -0.1871 -0.5077
  671SOL    HW1 2140   2.670   1.067   2.373 -1.3479 -1.5471 -0.1810
  671SOL    HW2 2141   2.653   1.126   2.511  0.3174  1.4356 -1.1476
  672SOL     OW 2142   2.922   2.483   2.786 -0.5807  0.4032 -0.5401
  672SOL    HW1 2143   2.846   2.428   2.767 -1.5856  1.7187 -0.4864
  672SOL    HW2 2144   2.945   2.522   2.701 -1.5826  1.9674 -0.1335
  673SOL     OW 2145   2.264   2.455   2.615 -0.2098  0.3457  0.4843
  673SOL    HW1 2146   2.194   2.461   2.549 -0.5780 -0.9755  0.7106
  673SOL    HW2 2147   2.332   2.403   2.572 -0.0316  0.3156  0.8029
  674SOL     OW 2148   3.639   2.414   3.174 -0.4042 -0.4993  0.5074
  674SOL    HW1 2149   3.563   2.474   3.174  0.5168  0.7392  1.8989
  674SOL    HW2 2150   3.706   2.460   3.224  1.5388 -1.2749 -1.2069
  675SOL     OW 2151   1.625   2.199   1.356 -0.2841 -0.1380 -0.6043
  675SOL    HW1 2152   1.713   2.172   1.328  0.7000  1.5611  0.6418
  675SOL    HW2 2153   1.614   2.159   1.442 -1.2253 -1.2682 -1.2318
  676SOL     OW 2154   0.524   1.464   1.228  0.1465  0.5791  0.5931
  676SOL    HW1 2155   0.596   1.402   1.243  0.0017  0.5087  0.9907
  676SOL    HW2 2156   0.453   1.433   1.283 -0.3231  0.4341 -0.0869
  677SOL     OW 2157   0.525   3.461   0.962 -0.4714 -0.4941 -0.5997
  677SOL    HW1 2158   0.569   3.408   0.896  2.5820  0.2937  0.6375
  677SOL    HW2 2159   0.576   3.542   0.966 -1.7738  0.3036  1.3375
  678SOL     OW 2160   0.524   1.140   2.084  0.1900  0.6192  0.5931
  678SOL    HW1 2161   0.575   1.063   2.060  0.8490  0.2719  2.8829
  678SOL    HW2 2162   0.564   1.212   2.037  2.0432  0.1403  1.3667
  679SOL     OW 2163   2.591   2.070   3.645 -0.0584 -0.3619 -0.3624
  679SOL    HW1 2164   2.507   2.108   3.669 -0.3461 -1.2102 -0.0157
  679SOL    HW2 2165   2.604   1.998   3.706  2.2416  1.4602  1.4703
  680SOL     OW 2166   1.244   3.146   2.934  0.2809  0.0331  0.2234
  680SOL    HW1 2167   1.196   3.225   2.910  0.6093  0.1849  0.0540
  680SOL    HW2 2168   1.203   3.076   2.885  0.6207  0.2588 -0.3899
  681SOL     OW 2169   0.167   1.226   2.496  0.4991  0.2609  0.4230
  681SOL    HW1 2170   0.173   1.208   2.590  0.8587 -0.5047  0.2639
  681SOL    HW2 2171   0.243   1.181   2.459 -0.6639 -1.0235 -0.4611
  682SOL     OW 2172   0.087   0.939   3.197 -0.5104 -0.6037 -0.2122
  682SOL    HW1 2173   0.098   0.846   3.216 -0.2093 -0.4632  0.3210
  682SOL    HW2 2174   0.003   0.962   3.236 -0.0066 -0.3727  0.7715
  683SOL     OW 2175   0.938   3.282   2.909 -0.1716  0.3751 -0.0704
  683SOL    HW1 2176   0.875   3.211   2.916  0.8186 -0.8004 -2.2348
  683SOL    HW2 2177   0.896   3.346   2.852 -0.5558  1.0105  0.8855
  684SOL     OW 2178   3.073   0.976   2.333  0.6460  0.1506 -0.0030
  684SOL    HW1 2179   3.129   0.904   2.305  0.0386  0.4337 -2.1346
  684SOL    HW2 2180   3.026   0.942   2.409  2.2073 -0.7910  0.5661
  685SOL     OW 2181   1.049   2.926   2.171  0.4523  0.1965 -0.5776
  685SOL    HW1 2182   0.999   2.862   2.220 -0.1400  0.0149 -1.3985
  685SOL    HW2 2183   1.067   2.996   2.234 -0.0011 -0.1791 -0.0209
  686SOL     OW 2184   0.979   0.089   1.007  0.3171 -0.5111  0.1073
  686SOL    HW1 2185   1.013   0.152   0.943 -2.5577 -0.3493 -1.4410
  686SOL    HW2 2186   0.966   0.141   1.086  0.8206  0.1187 -0.2079
  687SOL     OW 2187   0.084   0.388   2.114 -0.3361 -0.4200 -0.4929
  687SOL    HW1 2188   0.001   0.350   2.087 -0.2713 -1.1051  0.2243
  687SOL    HW2 2189   0.149   0.323   2.090 -0.0538 -0.0912 -0.6236
  688SOL     OW 2190   3.312   2.231   0.348  0.2814  0.8233 -0.2048
  688SOL    HW1 2191   3.218   2.249   0.357  0.0444 -0.2478 -0.2807
  688SOL    HW2 2192   3.338   2.200   0.435  0.2897  0.0390 -0.4731
  689SOL     OW 2193   1.210   1.354   3.237 -0.1429 -0.2616 -0.3382
  689SOL    HW1 2194   1.238   1.263   3.240  1.8725  0.2842 -0.7144
  689SOL    HW2 2195   1.143   1.361   3.305  1.8265 -1.3766  1.8668
  690SOL     OW 2196   3.683   2.086   2.743  0.3018  0.3389  0.1701
  690SOL    HW1 2197   3.605   2.140   2.727  0.5626  0.1290 -2.2865
  690SOL    HW2 2198   3.747   2.118   2.680  1.4362 -0.9870  0.6036
  691SOL     OW 2199   3.371   2.533   2.642 -0.2882 -0.4066 -0.0437
  691SOL    HW1 2200   3.421   2.503   2.718 -0.4347 -1.5672 -0.4007
  691SOL    HW2 2201   3.280   2.526   2.669 -0.3168  0.2110  0.0442
  692SOL     OW 2202   3.330   0.178   3.288 -0.2127 -0.0450  0.0278
  692SOL    HW1 2203   3.282   0.219   3.216  0.9074 -0.1252 -0.7833
  692SOL    HW2 2204   3.326   0.242   3.359  0.8148  1.1607 -0.9490
  693SOL     OW 2205   2.881   3.031   2.852 -0.0734 -0.0206 -0.2136
  693SOL    HW1 2206   2.925   2.952   2.883  0.7213  0.6079  0.2953
  693SOL    HW2 2207   2.799   2.999   2.814  0.6657 -1.1890 -0.9098
  694SOL     OW 2208   1.941   2.649   2.050  0.0721  0.2052  0.6487
  694SOL    HW1 2209   1.912   2.559   2.034 -0.4927  0.4754  0.1352
  694SOL    HW2 2210   1.943   2.690   1.964  0.4840  0.6434  0.8593
  695SOL     OW 2211   1.693   0.517   3.607 -0.1017 -0.2043 -0.5374
  695SOL    HW1 2212   1.677   0.454   3.677  3.2746  0.2404  0.8428
  695SOL    HW2 2213   1.748   0.470   3.545 -1.5795 -0.0242 -2.0466
  696SOL     OW 2214   2.475   3.565   0.953 -0.5713  0.6433 -0.9444
  696SOL    HW1 2215   2.546   3.624   0.978  1.2129 -1.5667 -0.5855
  696SOL    HW2 2216   2.419   3.562   1.031  1.0148 -0.4999  0.2155
  697SOL     OW 2217   2.409   1.733   2.480  0.0649 -0.0797  0.1137
  697SOL    HW1 2218   2.461   1.682   2.542 -0.1844 -0.0948  0.3120
  697SOL    HW2 2219   2.444   1.822   2.486  1.3876 -0.4604 -1.1866
  698SOL     OW 2220   1.324   2.097   3.048 -0.0476  0.7110  0.4393
  698SOL    HW1 2221   1.287   2.137   2.969  1.2754  1.7853  0.3132
  698SOL    HW2 2222   1.413   2.134   3.053  0.5317 -0.7544  1.4231
  699SOL     OW 2223   3.467   3.560   0.824 -0.1269 -0.3511  0.5489
  699SOL    HW1 2224   3.443   3.642   0.867 -1.9766 -1.1844  1.1948
  699SOL    HW2 2225   3.555   3.542   0.855  1.3163  2.5302 -1.4017
  700SOL     OW 2226   2.774   1.462   2.175  0.6625 -0.1521  0.5081
  700SOL    HW1 2227   2.733   1.492   2.256 -1.4469  0.2177 -0.6297
  700SOL    HW2 2228   2.785   1.541   2.123 -0.0594 -0.6383 -0.4182
  701SOL     OW 2229   0.267   0.524   3.542  0.0391 -0.5476  0.3989
  701SOL    HW1 2230   0.240   0.444   3.586 -2.6850 -0.7584 -1.3455
  701SOL    HW2 2231   0.247   0.508   3.449  1.1679  1.4786 -0.2664
  702SOL     OW 2232   0.938   2.633   1.797 -0.2587  0.1827  0.1308
  702SOL    HW1 2233   0.937   2.726   1.819  2.5837  0.5183 -0.7424
  702SOL    HW2 2234   1.000   2.594   1.859  1.2956 -0.4056 -1.6750
  703SOL     OW 2235   1.452   0.887   1.348  0.0594  0.5023 -0.2860
  703SOL    HW1 2236   1.519   0.820   1.333 -0.2592 -0.1882  1.1373
  703SOL    HW2 2237   1.468   0.918   1.437 -2.7533 -1.2318  0.9829
  704SOL     OW 2238   0.551   2.920   3.098 -0.1755  0.1995 -0.1810
  704SOL    HW1 2239   0.464   2.888   3.121  0.6397 -1.6560  0.5688
  704SOL    HW2 2240   0.611   2.866   3.150  1.4075  1.9668 -0.0645
  705SOL     OW 2241   2.216   0.274   0.789 -0.7272 -1.1382  0.1263
  705SOL    HW1 2242   2.307   0.288   0.817 -0.9432 -1.3194  0.9531
  705SOL    HW2 2243   2.211   0.180   0.770 -0.8350 -1.1968  0.4405
  706SOL     OW 2244   3.275   1.710   0.081 -0.1321  0.2490 -0.1314
  706SOL    HW1 2245   3.215   1.647   0.122  1.7185 -1.8956 -0.4792
  706SOL    HW2 2246   3.266   1.789   0.134 -1.6770 -0.6957  1.1282
  707SOL     OW 2247   3.214   3.070   0.816  0.4489 -0.2281 -0.1562
  707SOL    HW1 2248   3.151   3.086   0.887  0.1088 -1.3974 -0.1861
  707SOL    HW2 2249   3.263   3.152   0.810 -0.2760  0.2882  0.6671
  708SOL     OW 2250   0.200   2.944   3.654 -0.2982  0.8483 -0.1625
  708SOL    HW1 2251   0.185   2.850   3.643 -1.1442  0.8749  0.7146
  708SOL    HW2 2252   0.163   2.983   3.574  2.4943  0.2764 -1.9030
  709SOL     OW 2253   2.963   0.249   2.861 -0.0823 -0.9384  0.0682
  709SOL    HW1 2254   2.938   0.157   2.870  1.2166 -1.7870 -3.1943
  709SOL    HW2 2255   2.903   0.284   2.794  0.1055  0.2930  0.5130
  710SOL     OW 2256   0.223   0.357   1.860  0.3592 -0.5512 -0.0319
  710SOL    HW1 2257   0.289   0.354   1.792  1.6121  0.6621  1.0605
  710SOL    HW2 2258   0.146   0.395   1.818  0.9521 -0.2764 -0.8932
  711SOL     OW 2259   2.720   2.331   1.646 -0.2015  0.1516 -0.4828
  711SOL    HW1 2260   2.667   2.288   1.579 -1.4513 -0.8448  1.0759
  711SOL    HW2 2261   2.809   2.327   1.612 -0.0859 -4.2367 -0.2495
  712SOL     OW 2262   2.329   1.949   3.340  0.3622 -0.2278  0.6630
  712SOL    HW1 2263   2.410   1.904   3.318 -0.1760  0.3168 -3.0368
  712SOL    HW2 2264   2.263   1.879   3.341  0.3247 -0.2051  0.0379
  713SOL     OW 2265   0.600   0.176   1.115 -0.2346 -0.1126 -0.1014
  713SOL    HW1 2266   0.624   0.083   1.119  0.5868  0.1243  0.8935
  713SOL    HW2 2267   0.508   0.175   1.087 -0.7648 -1.3273  1.4681
  714SOL     OW 2268   2.451   1.867   1.585  0.4994 -0.4566 -0.1703
  714SOL    HW1 2269   2.432   1.833   1.498 -0.2840 -1.1449  0.2595
  714SOL    HW2 2270   2.429   1.795   1.645 -2.3614  1.1105  0.8642
  715SOL     OW 2271   1.410   0.941   1.623  0.2759  0.1204 -0.2527
  715SOL    HW1 2272   1.447   0.960   1.709  0.4400  0.9787 -0.5113
  715SOL    HW2 2273   1.400   1.026   1.581 -1.2011 -0.1597 -0.5198
  716SOL     OW 2274   2.553   3.025   3.544 -0.6381 -0.6541 -0.7393
  716SOL    HW1 2275   2.541   2.945   3.594  0.8171 -1.2927 -1.3662
  716SOL    HW2 2276   2.533   3.095   3.606  1.3551 -1.4127  0.8763
  717SOL     OW 2277   2.006   1.919   1.270 -0.5008 -0.0816  0.2362
  717SOL    HW1 2278   1.973   1.865   1.342 -1.2062  1.8387  1.4172
  717SOL    HW2 2279   1.938   1.915   1.203 -1.2426  0.5229  0.9391
  718SOL     OW 2280   2.332   1.594   0.190  0.0199  0.4520  0.0820
  718SOL    HW1 2281   2.314   1.687   0.177  1.3862  0.5455 -1.5188
  718SOL    HW2 2282   2.392   1.591   0.265  1.5124  1.0892 -1.0305
  719SOL     OW 2283   1.441   3.523   2.450  0.2611  0.2330 -0.1446
  719SOL    HW1 2284   1.381   3.564   2.388  0.5422 -0.8611 -1.1798
  719SOL    HW2 2285   1.400   3.439   2.471  1.4553 -0.5990 -0.9860
  720SOL     OW 2286   0.735   1.660   0.934  0.9289 -0.2045  0.1895
  720SOL    HW1 2287   0.686   1.697   0.861  0.6691 -0.4581  0.2328
  720SOL    HW2 2288   0.690   1.578   0.954  2.2352 -1.1584 -0.7093
  721SOL     OW 2289   2.900   3.104   2.472  0.0270 -0.2786 -0.4795
  721SOL    HW1 2290   2.895   3.182   2.528 -1.0936 -1.1305  0.6867
  721SOL    HW2 2291   2.992   3.078   2.474  0.0760 -0.0887  0.7288
  722SOL     OW 2292   3.084   3.489   3.528 -0.0702  0.2488 -0.2663
  722SOL    HW1 2293   3.003   3.496   3.476  0.5475  0.3332 -1.2378
  722SOL    HW2 2294   3.055   3.504   3.618 -1.2996 -0.6566 -0.4714
  723SOL     OW 2295   3.292   2.385   3.251 -0.1809 -0.1981  0.9837
  723SOL    HW1 2296   3.321   2.347   3.334  0.1630 -0.6956  0.6414
  723SOL    HW2 2297   3.197   2.394   3.260 -0.8395 -4.2875 -0.1424
  724SOL     OW 2298   0.863   3.282   3.576 -0.0967 -0.1936  0.5780
  724SOL    HW1 2299   0.878   3.265   3.669  1.2062 -0.8171  0.2809
  724SOL    HW2 2300   0.914   3.214   3.531 -1.6148 -0.6300 -0.5967
  725SOL     OW 2301   0.113   2.704   2.746 -0.2505 -0.0917 -0.4223
  725SOL    HW1 2302   0.022   2.709   2.772 -0.2640 -0.5783 -0.3604
  725SOL    HW2 2303   0.162   2.707   2.828 -0.3679 -3.8147 -0.0372
  726SOL     OW 2304   2.676   0.389   3.267 -1.3530  0.3646  0.0054
  726SOL    HW1 2305   2.661   0.347   3.183  0.0261  0.4878 -0.3189
  726SOL    HW2 2306   2.729   0.466   3.247  0.6489 -0.6260  1.1573
  727SOL     OW 2307   3.551   2.041   2.461  0.3240 -0.4569 -0.1532
  727SOL    HW1 2308   3.497   2.050   2.539  0.9557 -0.9350  0.3428
  727SOL    HW2 2309   3.610   2.117   2.464  0.1965 -0.3536 -0.2818
  728SOL     OW 2310   2.065   0.846   2.746 -0.3660 -0.2744 -0.6229
  728SOL    HW1 2311   2.067   0.916   2.681  0.7783  0.6496  0.3722
  728SOL    HW2 2312   2.139   0.790   2.722 -1.5252 -1.4341 -1.6715
  729SOL     OW 2313   1.744   1.790   3.275  0.0548  0.3496 -0.1990
  729SOL    HW1 2314   1.821   1.845   3.286 -0.2614  0.7388  0.1066
  729SOL    HW2 2315   1.676   1.849   3.242  0.4685 -0.4280 -2.6010
  730SOL     OW 2316   2.193   2.521   0.142 -0.3450  0.5665  0.4238
  730SOL    HW1 2317   2.106   2.560   0.139 -1.3092 -1.3871  1.3135
  730SOL    HW2 2318   2.201   2.472   0.060 -1.5250 -2.0349  1.7755
  731SOL     OW 2319   2.445   0.962   1.448 -0.8171  0.2365 -0.1032
  731SOL    HW1 2320   2.365   0.909   1.453 -0.8738  0.3618  0.3961
  731SOL    HW2 2321   2.514   0.900   1.426 -0.7406 -0.1945  1.2765
  732SOL     OW 2322   1.883   1.568   2.609  0.1105  0.2957 -0.2787
  732SOL    HW1 2323   1.928   1.545   2.690  1.2927 -0.3197 -1.0805
  732SOL    HW2 2324   1.920   1.652   2.583 -0.8762  0.9042  0.2433
  733SOL     OW 2325   3.302   1.648   2.927  0.3361 -0.0960 -0.4115
  733SOL    HW1 2326   3.389   1.660   2.965  0.5304 -2.0387 -0.1462
  733SOL    HW2 2327   3.242   1.670   2.999  0.5672  1.4317 -0.6502
  734SOL     OW 2328   2.287   1.982   2.751  0.4932 -0.2687  0.2219
  734SOL    HW1 2329   2.381   1.994   2.737  0.0586  1.6214 -1.5872
  734SOL    HW2 2330   2.247   2.062   2.718 -1.7881 -1.1227  0.7105
  735SOL     OW 2331   2.980   2.293   1.544  0.2198  1.1239  0.4181
  735SOL    HW1 2332   2.976   2.198   1.538 -0.9799  1.1487  0.7356
  735SOL    HW2 2333   3.036   2.319   1.470 -0.9380  0.2969 -0.7968
  736SOL     OW 2334   1.397   0.337   0.799 -0.1385 -0.2588 -0.2709
  736SOL    HW1 2335   1.421   0.415   0.749 -1.4636 -0.0423 -0.6047
  736SOL    HW2 2336   1.463   0.332   0.868  0.5029  0.6275 -0.7947
  737SOL     OW 2337   1.384   1.891   1.651 -0.3563  0.0325  0.5048
  737SOL    HW1 2338   1.298   1.904   1.611  0.4783  0.6265 -1.2110
  737SOL    HW2 2339   1.384   1.799   1.677 -1.0301 -0.3435 -0.7302
  738SOL     OW 2340   1.610   1.227   3.649  0.1798  0.3605 -0.2360
  738SOL    HW1 2341   1.705   1.234   3.640  0.7917 -3.0756  1.7286
  738SOL    HW2 2342   1.585   1.161   3.584 -1.2503  2.3966 -1.8935
  739SOL     OW 2343   0.584   0.142   0.453  0.4590 -0.0957 -0.0190
  739SOL    HW1 2344   0.647   0.213   0.442  0.0502  0.0919 -1.2468
  739SOL    HW2 2345   0.602   0.082   0.381  0.2450 -0.8207  0.5222
  740SOL     OW 2346   2.209   1.970   3.078  0.3473  0.7160  0.5306
  740SOL    HW1 2347   2.292   1.961   3.031 -0.0949  1.0372 -0.3353
  740SOL    HW2 2348   2.227   2.034   3.146  0.3010  2.3570 -0.9265
  741SOL     OW 2349   2.482   2.612   1.328 -0.0888 -0.3679 -0.2860
  741SOL    HW1 2350   2.387   2.625   1.318 -0.3570 -2.5771 -1.2223
  741SOL    HW2 2351   2.521   2.673   1.266 -0.7823  1.5370  1.0458
  742SOL     OW 2352   3.419   0.452   0.565  0.3935 -0.2420 -0.5030
  742SOL    HW1 2353   3.380   0.435   0.651  1.1460  1.8018  0.3183
  742SOL    HW2 2354   3.500   0.499   0.584  0.8333 -0.1795 -2.3234
  743SOL     OW 2355   2.174   2.969   0.851  0.0832  0.9297 -0.0098
  743SOL    HW1 2356   2.138   3.057   0.834 -0.3029  0.5194 -1.4973
  743SOL    HW2 2357   2.200   2.937   0.764 -1.5237 -1.1624  0.2128
  744SOL     OW 2358   0.899   1.730   1.649  0.2797 -0.0333 -0.0163
  744SOL    HW1 2359   0.946   1.652   1.677  1.4771  0.4750 -0.5516
  744SOL    HW2 2360   0.956   1.771   1.584 -1.1098  0.3653 -1.0404
  745SOL     OW 2361   2.862   0.594   3.197  0.0085  0.5737  0.0551
  745SOL    HW1 2362   2.882   0.611   3.289 -0.8861 -0.9814  0.5737
  745SOL    HW2 2363   2.909   0.513   3.177 -3.6601 -1.9737  0.6884
  746SOL     OW 2364   2.577   1.235   1.306  0.2190  0.6080  0.4184
  746SOL    HW1 2365   2.528   1.314   1.284  2.1337  1.5136 -0.8575
  746SOL    HW2 2366   2.512   1.165   1.305 -0.8804  1.5514 -2.3117
  747SOL     OW 2367   0.022   2.466   0.967 -0.1100 -0.5346 -0.1955
  747SOL    HW1 2368  -0.058   2.416   0.984 -0.2232  0.2391  1.8107
  747SOL    HW2 2369   0.083   2.438   1.036  1.0538 -0.4567 -1.1614
  748SOL     OW 2370   2.400   3.063   2.596  0.5596 -0.1096  0.0414
  748SOL    HW1 2371   2.424   2.996   2.661  0.0440 -0.3559 -0.0173
  748SOL    HW2 2372   2.362   3.133   2.648  1.0107  0.1019  0.0930
  749SOL     OW 2373   2.265   2.200   0.140  0.4417 -0.4994  0.5084
  749SOL    HW1 2374   2.197   2.239   0.196  1.4870  1.6011  0.4164
  749SOL    HW2 2375   2.220   2.178   0.059 -0.3486 -0.1193  0.8328
  750SOL     OW 2376   3.337   2.456   0.511  0.0166  0.2597  0.5107
  750SOL    HW1 2377   3.429   2.433   0.499 -0.1255  0.1165 -0.3760
  750SOL    HW2 2378   3.292   2.408   0.442 -0.8390 -0.3915  1.4903
  751SOL     OW 2379   2.602   1.644   0.288 -0.2200  0.7086  0.8971
  751SOL    HW1 2380   2.677   1.588   0.308 -1.4607 -1.3261  0.1375
  751SOL    HW2 2381   2.587   1.693   0.369  0.8312 -0.1722  1.6522
  752SOL     OW 2382   2.652   2.251   2.864  0.0513  0.2480  0.3597
  752SOL    HW1 2383   2.671   2.201   2.784  1.4609 -2.1694  2.0745
  752SOL    HW2 2384   2.644   2.185   2.932  0.1715  2.2924  2.4835
  753SOL     OW 2385   2.553   0.590   2.033  0.1426 -0.0826  0.0171
  753SOL    HW1 2386   2.637   0.546   2.044  0.2724  0.0481 -0.4095
  753SOL    HW2 2387   2.495   0.522   1.999  0.1757 -0.0851 -0.0362
  754SOL     OW 2388   3.619   2.383   0.482 -0.6165 -0.0367  0.6449
  754SOL    HW1 2389   3.710   2.384   0.451 -0.6812 -0.8313  0.4090
  754SOL    HW2 2390   3.620   2.440   0.559 -0.0252  0.3630  0.3564
  755SOL     OW 2391   3.654   0.613   0.623  0.3842  0.5680  0.6187
  755SOL    HW1 2392   3.742   0.577   0.629  0.1345 -0.2159 -0.0603
  755SOL    HW2 2393   3.642   0.663   0.703  2.2056  2.4949 -0.2499
  756SOL     OW 2394   0.959   2.961   3.178 -0.3102  0.6384  0.0921
  756SOL    HW1 2395   1.024   2.977   3.110  0.4743 -0.1092  0.6532
  756SOL    HW2 2396   0.896   3.033   3.168 -0.1353  0.6100 -1.3217
  757SOL     OW 2397   3.704   1.699   0.059 -0.3311 -0.2099 -0.3171
  757SOL    HW1 2398   3.683   1.647  -0.018 -0.4280 -0.1953 -0.3004
  757SOL    HW2 2399   3.663   1.784   0.043  1.2501  0.4381 -1.1195
  758SOL     OW 2400   1.967   3.583   2.269  0.5949  0.0129 -0.2488
  758SOL    HW1 2401   2.009   3.607   2.186  1.4441  1.8815  0.6515
  758SOL    HW2 2402   1.875   3.605   2.257  0.8576  1.0443 -0.4532
  759SOL     OW 2403   2.825   2.091   0.879 -0.0924  0.1814 -0.0668
  759SOL    HW1 2404   2.769   2.160   0.916  0.4624  0.0732  1.0169
  759SOL    HW2 2405   2.882   2.137   0.817  0.9874  0.9340  1.4012
  760SOL     OW 2406   0.698   3.084   1.666 -0.3816  0.0315  0.1345
  760SOL    HW1 2407   0.654   3.133   1.736  0.5371  0.7612  0.2197
  760SOL    HW2 2408   0.754   3.148   1.623  1.2607 -1.0454  0.5806
  761SOL     OW 2409   0.546   2.511   2.750  0.6982  0.2284  0.1892
  761SOL    HW1 2410   0.562   2.470   2.665  1.6106 -1.7748  1.2348
  761SOL    HW2 2411   0.590   2.453   2.812 -1.9158  0.2913  2.2760
  762SOL     OW 2412   0.778   3.370   1.882  0.0470  0.2445 -0.0019
  762SOL    HW1 2413   0.746   3.391   1.970  0.8256  1.5673 -0.0121
  762SOL    HW2 2414   0.835   3.293   1.896 -0.6296 -0.1789  0.4810
  763SOL     OW 2415   2.528   3.222   1.479 -0.0949 -0.0593  0.0705
  763SOL    HW1 2416   2.528   3.140   1.430 -1.2484  0.5491 -1.0002
  763SOL    HW2 2417   2.564   3.287   1.419  2.7480 -0.0831  1.5854
  764SOL     OW 2418   2.187   0.138   2.362  0.4793  0.2895  0.2215
  764SOL    HW1 2419   2.155   0.075   2.298 -0.6263 -0.7605  1.7381
  764SOL    HW2 2420   2.177   0.223   2.319 -0.5472 -0.3478 -0.8700
  765SOL     OW 2421   2.867   1.871   2.969 -0.7212 -0.2297  0.0822
  765SOL    HW1 2422   2.852   1.844   3.060  0.5967 -3.0169 -0.4099
  765SOL    HW2 2423   2.889   1.789   2.924  1.2811  1.4272 -2.1791
  766SOL     OW 2424   2.236   0.055   0.444 -0.4477 -0.0665 -0.1292
  766SOL    HW1 2425   2.168  -0.011   0.432  0.2412 -1.0619  1.2082
  766SOL    HW2 2426   2.318   0.008   0.432  0.0482  0.6870  0.2058
  767SOL     OW 2427   1.641   3.075   1.015  0.4500  0.2112  0.1368
  767SOL    HW1 2428   1.736   3.084   1.017  0.5855 -0.4934 -1.6046
  767SOL    HW2 2429   1.615   3.076   1.107  1.8139  3.3753  0.6156
  768SOL     OW 2430   3.334   3.172   2.960  0.5730 -0.4562 -0.1509
  768SOL    HW1 2431   3.397   3.130   2.901 -0.0794 -0.3689 -0.9386
  768SOL    HW2 2432   3.382   3.184   3.042  1.6363 -0.2162 -0.7841
  769SOL     OW 2433   0.901   1.181   2.726 -0.0781 -0.2957  0.0742
  769SOL    HW1 2434   0.827   1.242   2.728  0.5975  0.5115  0.9060
  769SOL    HW2 2435   0.933   1.179   2.816  0.4960 -1.1760 -0.1326
  770SOL     OW 2436   2.406   2.130   1.715 -0.4586 -0.1859 -0.9431
  770SOL    HW1 2437   2.399   2.066   1.645 -0.4414  0.9828 -2.0476
  770SOL    HW2 2438   2.430   2.079   1.792 -4.1202 -2.1224 -0.8308
  771SOL     OW 2439   0.935   1.688   0.146  0.7746 -0.4240  0.9290
  771SOL    HW1 2440   0.969   1.636   0.219 -1.4174 -3.1660  0.1780
  771SOL    HW2 2441   0.844   1.704   0.169  0.4828  0.0639 -0.5059
  772SOL     OW 2442   1.503   1.521   2.952 -0.1888  0.2903 -0.1027
  772SOL    HW1 2443   1.560   1.484   2.884 -1.3093  0.1602 -1.0028
  772SOL    HW2 2444   1.448   1.448   2.980 -0.5190  0.6209  0.1215
  773SOL     OW 2445   2.513   1.616   1.881  0.0641  0.3622  0.3730
  773SOL    HW1 2446   2.460   1.538   1.863 -0.0150  0.6159 -0.5581
  773SOL    HW2 2447   2.603   1.589   1.863 -0.0368  0.6762 -0.6629
  774SOL     OW 2448   0.884   1.036   0.604 -0.0350  0.2856 -0.1864
  774SOL    HW1 2449   0.864   0.949   0.639  0.1202  0.5892  0.6688
  774SOL    HW2 2450   0.937   1.019   0.526 -0.9255 -0.4162 -0.6580
  775SOL     OW 2451   0.189   1.407   2.301 -0.2643 -0.0446  0.1895
  775SOL    HW1 2452   0.164   1.329   2.350  0.7571 -0.0741  0.6893
  775SOL    HW2 2453   0.166   1.480   2.359  2.0551 -0.1151  1.3078
  776SOL     OW 2454   1.539   3.515   1.209  0.0173 -1.0645 -0.5674
  776SOL    HW1 2455   1.506   3.453   1.275 -2.3556 -0.7004 -1.3104
  776SOL    HW2 2456   1.618   3.473   1.175  0.0675 -2.3060  0.9491
  777SOL     OW 2457   3.570   0.820   0.038 -1.0215 -0.0573 -0.2750
  777SOL    HW1 2458   3.515   0.885  -0.006  0.4717  0.6615 -1.1728
  777SOL    HW2 2459   3.655   0.864   0.048 -0.6646 -1.0411  1.2778
  778SOL     OW 2460   0.181   1.909   1.894 -0.3996  0.3950  0.2057
  778SOL    HW1 2461   0.220   1.839   1.842 -0.5006 -0.6945  1.5283
  778SOL    HW2 2462   0.117   1.950   1.836  0.1497 -0.1712 -0.8113
  779SOL     OW 2463   1.894   0.329   1.703  0.4760 -0.9483  0.3167
  779SOL    HW1 2464   1.823   0.267   1.693 -0.2282  0.0292 -1.0141
  779SOL    HW2 2465   1.973   0.278   1.688 -0.1042 -1.5001 -0.9783
  780SOL     OW 2466   0.965   3.520   1.341  0.7072 -0.5096  0.5451
  780SOL    HW1 2467   1.024   3.481   1.277  1.1103  0.3395  0.3872
  780SOL    HW2 2468   0.880   3.522   1.298  1.3093  1.6419 -0.6673
  781SOL     OW 2469   1.931   1.105   0.899 -0.3614  0.4526 -0.2860
  781SOL    HW1 2470   1.921   1.012   0.877 -0.7679  0.6759 -1.0712
  781SOL    HW2 2471   2.024   1.115   0.916  0.1018  0.3551 -2.4328
  782SOL     OW 2472   1.287   1.386   0.339 -0.7005 -0.8581  0.0144
  782SOL    HW1 2473   1.282   1.397   0.434 -1.8906 -0.2769 -0.1066
  782SOL    HW2 2474   1.373   1.421   0.316 -1.7262  2.2205  0.4909
  783SOL     OW 2475   2.376   3.049   3.012  0.0009  0.3815  0.7349
  783SOL    HW1 2476   2.417   3.012   2.934 -0.1470  0.5595  0.5702
  783SOL    HW2 2477   2.335   2.975   3.056  0.8523  0.1272  1.1251
  784SOL     OW 2478   2.984   0.885   3.148  0.0081  0.4679 -0.0439
  784SOL    HW1 2479   3.057   0.861   3.090  0.8097  1.5163  0.5192
  784SOL    HW2 2480   2.936   0.802   3.160  1.8832 -0.5694  0.6942
  785SOL     OW 2481   2.334   2.449   1.669  0.3347  0.6213 -0.1450
  785SOL    HW1 2482   2.316   2.360   1.699  0.3559  0.8402  0.5317
  785SOL    HW2 2483   2.385   2.488   1.740  0.3064  1.1828 -0.4290
  786SOL     OW 2484   0.139   3.291   3.647 -0.6241 -0.1757 -0.0210
  786SOL    HW1 2485   0.066   3.260   3.593 -1.1195 -0.1842  0.6373
  786SOL    HW2 2486   0.207   3.315   3.584 -0.3337 -2.2654 -0.5773
  787SOL     OW 2487   3.170   1.940   3.338  0.1198 -0.0681 -0.3294
  787SOL    HW1 2488   3.104   2.006   3.315 -0.9838 -1.2354 -0.6452
  787SOL    HW2 2489   3.179   1.887   3.259 -1.4942 -2.3174  0.8973
  788SOL     OW 2490   0.250   2.166   0.007 -0.1558 -0.3083 -0.1195
  788SOL    HW1 2491   0.173   2.213   0.041  0.8462  2.1112 -1.0086
  788SOL    HW2 2492   0.213   2.097  -0.048 -1.6969 -0.5808  1.1573
  789SOL     OW 2493   3.123   0.169   0.465 -0.1840 -0.0551 -0.1363
  789SOL    HW1 2494   3.039   0.122   0.458 -0.0201 -0.4487  0.5030
  789SOL    HW2 2495   3.126   0.223   0.386 -1.0002 -0.1074 -0.2144
  790SOL     OW 2496   0.469   1.447   2.486  0.4685  0.2184  0.0747
  790SOL    HW1 2497   0.438   1.389   2.417  1.5912  0.6645 -0.8515
  790SOL    HW2 2498   0.392   1.467   2.539 -0.6436  0.6731 -1.6538
  791SOL     OW 2499   1.030   3.087   1.540 -0.0947  0.1699  0.5966
  791SOL    HW1 2500   0.987   3.109   1.458 -0.8732 -0.7480  0.7420
  791SOL    HW2 2501   1.004   3.157   1.600 -0.1102  0.4560  0.2600
  792SOL     OW 2502   2.196   2.208   3.198 -0.0742 -0.0897  0.0418
  792SOL    HW1 2503   2.270   2.216   3.258  0.4230 -2.6747 -0.1426
  792SOL    HW2 2504   2.224   2.256   3.119  0.4733  0.8093  0.7634
  793SOL     OW 2505   1.443   2.571   0.757  0.1507 -0.5622  0.0985
  793SOL    HW1 2506   1.440   2.660   0.724  2.2212 -0.4658  0.0211
  793SOL    HW2 2507   1.439   2.516   0.679  0.8395 -0.4676 -0.0060
  794SOL     OW 2508   3.547   0.941   1.061  0.5155 -0.2694 -0.2560
  794SOL    HW1 2509   3.605   0.923   1.136  0.5896 -0.3023 -0.3204
  794SOL    HW2 2510   3.607   0.969   0.992  0.5143 -0.9038 -0.5150
  795SOL     OW 2511   2.239   0.717   3.577  0.3658 -0.3239 -0.2946
  795SOL    HW1 2512   2.319   0.664   3.575  1.6426  1.3188  2.2043
  795SOL    HW2 2513   2.260   0.793   3.522  0.2460 -0.2200 -0.1956
  796SOL     OW 2514   3.636   3.313   3.392 -0.3678 -0.1845  1.0430
  796SOL    HW1 2515   3.672   3.399   3.371  0.1446 -0.0993  2.1750
  796SOL    HW2 2516   3.544   3.319   3.369 -0.3714  0.7288  1.2483
  797SOL     OW 2517   1.139   0.520   0.757  0.0427 -0.5605 -0.4183
  797SOL    HW1 2518   1.208   0.523   0.822  0.2489 -1.7621 -0.5579
  797SOL    HW2 2519   1.063   0.558   0.801  0.2018 -1.2719  0.5014
  798SOL     OW 2520   1.960   0.540   3.096 -0.7398 -0.2975  0.5388
  798SOL    HW1 2521   1.984   0.629   3.072  1.2023 -1.1195 -0.8333
  798SOL    HW2 2522   1.995   0.529   3.184 -0.5316  0.1561  0.5164
  799SOL     OW 2523   3.229   0.335   0.752 -0.6495  0.0212  0.1233
  799SOL    HW1 2524   3.155   0.395   0.741  0.0362  0.3937 -3.9821
  799SOL    HW2 2525   3.210   0.262   0.694  1.1001 -1.0633  0.8315
  800SOL     OW 2526   1.418   0.429   0.023 -0.0086  0.3054  0.1545
  800SOL    HW1 2527   1.485   0.361   0.033 -1.2673 -0.9598  0.3044
  800SOL    HW2 2528   1.358   0.394  -0.044 -1.2042  0.8141  0.9186
  801SOL     OW 2529   1.744   1.461   1.765 -0.2579  0.0055 -0.1257
  801SOL    HW1 2530   1.789   1.394   1.714  1.3422  0.2710  0.8357
  801SOL    HW2 2531   1.654   1.430   1.772 -0.0826 -0.9266 -1.5360
  802SOL     OW 2532   3.501   2.793   0.096  0.2696 -0.3790  0.4512
  802SOL    HW1 2533   3.513   2.804   0.190  2.5112  0.6459  0.1134
  802SOL    HW2 2534   3.442   2.864   0.070 -0.8653 -1.0493  1.1458
  803SOL     OW 2535   0.607   0.451   3.564 -0.8766 -0.0202 -0.1222
  803SOL    HW1 2536   0.565   0.486   3.486 -1.8867  1.3721  0.9937
  803SOL    HW2 2537   0.551   0.479   3.637 -0.4853 -2.0481  1.0559
  804SOL     OW 2538   2.240   3.641  -0.006 -0.2446 -0.2760  0.4532
  804SOL    HW1 2539   2.289   3.717   0.024  0.7793 -0.3755 -0.9002
  804SOL    HW2 2540   2.168   3.633   0.057 -0.5446  1.9645  0.4942
  805SOL     OW 2541   1.681   2.311   2.137 -0.2627  0.4079  0.3315
  805SOL    HW1 2542   1.625   2.383   2.165 -0.6296  1.2147 -2.2099
  805SOL    HW2 2543   1.621   2.248   2.097  0.2534 -0.5144  0.9677
  806SOL     OW 2544   3.349   0.805   3.571 -0.0042  0.4689  0.2533
  806SOL    HW1 2545   3.353   0.719   3.612 -1.2502  0.6167  0.7462
  806SOL    HW2 2546   3.259   0.812   3.539 -0.1164  1.8330  0.7866
  807SOL     OW 2547   2.478   1.244   1.943  0.3797 -0.1193 -0.2170
  807SOL    HW1 2548   2.429   1.231   2.024  2.2198 -0.0855  0.9759
  807SOL    HW2 2549   2.443   1.179   1.882 -0.2218 -0.9946  1.0203
  808SOL     OW 2550   3.177   0.956   0.075 -0.0264 -0.3380  0.7827
  808SOL    HW1 2551   3.090   0.923   0.101  0.2873 -0.5039  1.6682
  808SOL    HW2 2552   3.204   0.899   0.003 -1.0960  0.3832 -0.2322
  809SOL     OW 2553   0.889   1.271   0.058  0.4501 -0.0363 -1.1259
  809SOL    HW1 2554   0.913   1.205  -0.007  0.8445 -0.3785 -0.6403
  809SOL    HW2 2555   0.947   1.345   0.041 -0.4367  0.4560 -2.0939
  810SOL     OW 2556   2.508   1.989   2.468  0.2081  0.0873 -0.7547
  810SOL    HW1 2557   2.542   2.047   2.536  3.6630 -1.5047 -0.9400
  810SOL    HW2 2558   2.469   2.048   2.403  1.2810  1.9924  0.2730
  811SOL     OW 2559   1.151   1.870   1.206 -0.4975  0.0778 -0.0053
  811SOL    HW1 2560   1.068   1.864   1.160  0.4898  0.4815 -1.9543
  811SOL    HW2 2561   1.176   1.962   1.200  0.1505 -0.0605  0.4315
  812SOL     OW 2562   1.204   1.450   2.854 -0.4846  0.2006 -0.3691
  812SOL    HW1 2563   1.121   1.497   2.864 -0.1499  1.2466 -2.0504
  812SOL    HW2 2564   1.262   1.488   2.920 -0.1821  2.3568 -1.7710
  813SOL     OW 2565   0.937   1.078   2.133  0.3048 -0.5705  0.3070
  813SOL    HW1 2566   0.969   1.000   2.088  0.9567 -1.4372  2.1859
  813SOL    HW2 2567   0.931   1.053   2.225  1.1767  1.7654  1.1004
  814SOL     OW 2568   2.746   1.079   1.785  0.3785 -0.1289  0.9134
  814SOL    HW1 2569   2.751   1.149   1.850  0.1515  1.4116 -0.6415
  814SOL    HW2 2570   2.698   1.009   1.828 -1.7650  1.7100  1.6846
  815SOL     OW 2571   0.979   2.859   3.598  0.0146 -0.6445 -0.3194
  815SOL    HW1 2572   0.890   2.827   3.613 -0.2009 -0.0574 -0.3009
  815SOL    HW2 2573   0.968   2.953   3.582  0.4530 -0.8643 -2.0347
  816SOL     OW 2574   2.936   2.756   1.400  0.4307  0.2958  0.4581
  816SOL    HW1 2575   3.001   2.695   1.433 -0.5446 -0.0211  1.8680
  816SOL    HW2 2576   2.852   2.712   1.414 -0.1830  1.2315 -0.1220
  817SOL     OW 2577   2.571   1.578   2.650  0.0947 -0.5825  0.5097
  817SOL    HW1 2578   2.666   1.574   2.660  0.0511 -0.6965  0.9026
  817SOL    HW2 2579   2.537   1.556   2.737 -0.3437 -3.3080 -0.2793
  818SOL     OW 2580   1.656   0.196   1.678 -0.4769  0.3575 -0.2746
  818SOL    HW1 2581   1.567   0.172   1.654 -0.1694 -1.7937  0.5391
  818SOL    HW2 2582   1.649   0.235   1.765 -0.5012 -1.1539  0.4248
  819SOL     OW 2583   1.346   3.677   0.306 -0.5683  0.3771  0.3003
  819SOL    HW1 2584   1.313   3.599   0.351  0.0712 -0.0313  0.0790
  819SOL    HW2 2585   1.293   3.749   0.341 -1.8634 -0.2756 -0.2409
  820SOL     OW 2586   2.713   0.894   0.373 -0.5249 -0.5652 -0.6493
  820SOL    HW1 2587   2.741   0.855   0.456  2.7556 -0.9042 -1.7591
  820SOL    HW2 2588   2.722   0.989   0.387 -1.0138 -0.5614 -0.3232
  821SOL     OW 2589   1.127   0.609   2.902  1.1859 -0.1952  0.2075
  821SOL    HW1 2590   1.191   0.669   2.863  0.7315  1.0149  1.2678
  821SOL    HW2 2591   1.162   0.522   2.883  2.0193  0.3884 -1.1024
  822SOL     OW 2592   2.408   2.975   0.436 -0.0959  0.3918 -0.2350
  822SOL    HW1 2593   2.357   3.001   0.360  1.0414  0.9635 -0.8311
  822SOL    HW2 2594   2.473   2.914   0.402  0.2358  0.4181  0.3278
  823SOL     OW 2595   2.940   0.880   0.194  0.0601  0.1646 -0.2467
  823SOL    HW1 2596   2.993   0.877   0.274  0.9047 -0.9652 -0.8238
  823SOL    HW2 2597   2.896   0.795   0.191  0.9101 -0.2524 -1.5379
  824SOL     OW 2598   2.070   1.515   3.555  0.0264 -0.0511  0.3209
  824SOL    HW1 2599   2.041   1.540   3.467 -1.6676  1.7896  1.3345
  824SOL    HW2 2600   2.166   1.526   3.551  0.0427 -0.4268 -1.3925
  825SOL     OW 2601   2.873   1.885   0.717  0.1578 -0.2715 -0.1216
  825SOL    HW1 2602   2.818   1.920   0.786 -1.6948  0.4723 -1.8682
  825SOL    HW2 2603   2.875   1.954   0.650  0.2064 -1.6978 -1.6664
  826SOL     OW 2604   0.329   1.488   3.269  0.5476 -0.0167 -0.4566
  826SOL    HW1 2605   0.323   1.394   3.251  0.3627 -0.5267  1.9968
  826SOL    HW2 2606   0.389   1.495   3.343 -2.9829  1.2712  2.6032
  827SOL     OW 2607   0.619   1.968   2.806 -0.4905 -0.5222  0.0901
  827SOL    HW1 2608   0.571   1.903   2.755 -2.0344 -0.1724  1.0453
  827SOL    HW2 2609   0.554   2.035   2.828  1.0064  1.2819 -0.7004
  828SOL     OW 2610   2.559   2.100   0.268  0.1300 -0.5871 -0.2553
  828SOL    HW1 2611   2.493   2.041   0.303 -0.4898 -0.3625 -1.0272
  828SOL    HW2 2612   2.615   2.045   0.214  0.1361 -0.6386 -0.1968
  829SOL     OW 2613   0.282   0.583   2.567  0.2302  0.4167 -0.4388
  829SOL    HW1 2614   0.252   0.516   2.506 -1.7825  0.4844  0.4235
  829SOL    HW2 2615   0.206   0.639   2.581  1.8115  2.9143 -1.0851
  830SOL     OW 2616   0.676   1.568   2.878 -0.4265  0.6539  0.8033
  830SOL    HW1 2617   0.641   1.487   2.916  0.8043 -0.1641  0.2531
  830SOL    HW2 2618   0.694   1.624   2.953 -2.0063  0.7422  1.1536
  831SOL     OW 2619   0.362   1.844   2.106 -0.1316  0.0616  0.2935
  831SOL    HW1 2620   0.328   1.850   2.017  1.3238 -0.2984 -0.3098
  831SOL    HW2 2621   0.288   1.870   2.161 -0.8452  1.0200 -1.0407
  832SOL     OW 2622   0.230   2.841   0.525 -0.6293 -0.2562  0.1992
  832SOL    HW1 2623   0.278   2.917   0.558  2.7592 -1.3034 -1.8385
  832SOL    HW2 2624   0.209   2.863   0.434  0.5497 -1.7297 -0.4703
  833SOL     OW 2625   3.646   3.712   0.190 -0.0832  0.5267 -0.1029
  833SOL    HW1 2626   3.624   3.636   0.137 -0.8130  0.4612  0.2843
  833SOL    HW2 2627   3.737   3.732   0.166 -0.1952  0.1211 -0.8999
  834SOL     OW 2628   0.200   3.588   2.776 -0.2988  0.0181  0.3258
  834SOL    HW1 2629   0.169   3.672   2.741 -0.5145 -0.1345  0.1482
  834SOL    HW2 2630   0.155   3.580   2.860 -3.0812 -1.5650 -1.1766
  835SOL     OW 2631   0.890   2.850   1.580  0.1523 -0.5471  0.2601
  835SOL    HW1 2632   0.803   2.844   1.620  0.4710 -1.3539  0.8479
  835SOL    HW2 2633   0.926   2.931   1.616 -0.0657 -0.6000  0.6062
  836SOL     OW 2634   0.421   1.855   0.991 -0.1979  0.7708 -1.0090
  836SOL    HW1 2635   0.418   1.812   0.906 -0.6606 -0.2173 -0.5118
  836SOL    HW2 2636   0.508   1.833   1.026 -1.1194 -1.5083  0.0792
  837SOL     OW 2637   1.390   0.355   0.304 -0.3419 -0.1415  0.4726
  837SOL    HW1 2638   1.348   0.434   0.340 -1.6337 -1.4068  1.8906
  837SOL    HW2 2639   1.414   0.380   0.215 -3.1639  1.0396 -0.0759
  838SOL     OW 2640   0.292   2.967   1.261  0.2502  0.7657 -0.1918
  838SOL    HW1 2641   0.290   2.876   1.290 -2.6892  1.0406  0.8285
  838SOL    HW2 2642   0.267   2.964   1.168 -3.3334  0.5989  0.6278
  839SOL     OW 2643   1.621   3.300   3.706  0.0996 -0.5008 -0.1281
  839SOL    HW1 2644   1.587   3.346   3.630 -1.1651 -1.6358 -0.2959
  839SOL    HW2 2645   1.690   3.243   3.671  0.0257 -0.4834 -0.3021
  840SOL     OW 2646   2.424   0.891   3.156  0.4461  0.3735  0.4474
  840SOL    HW1 2647   2.460   0.806   3.180  0.6821  0.3739  0.0956
  840SOL    HW2 2648   2.422   0.891   3.060 -0.0617  0.5514  0.4535
  841SOL     OW 2649   1.858   1.969   0.355 -0.3322 -0.5912  0.4702
  841SOL    HW1 2650   1.906   2.009   0.282 -3.6384  3.0075 -0.1132
  841SOL    HW2 2651   1.892   2.012   0.433  0.8889 -1.9366  0.7037
  842SOL     OW 2652   1.171   2.829   0.376  0.0580  0.0332  0.3865
  842SOL    HW1 2653   1.176   2.738   0.349 -0.0624 -0.2523  1.3179
  842SOL    HW2 2654   1.262   2.859   0.378  0.0273  0.3676 -1.3079
  843SOL     OW 2655   2.441   3.129   1.971 -0.0783  0.2697 -0.5162
  843SOL    HW1 2656   2.376   3.061   1.953  1.3244 -1.3865  0.3568
  843SOL    HW2 2657   2.505   3.086   2.027 -0.3329  2.9764  2.0892
  844SOL     OW 2658   0.960   0.393   2.161 -0.4100  1.3553  0.1900
  844SOL    HW1 2659   1.031   0.455   2.145 -1.1171  1.9225 -0.8991
  844SOL    HW2 2660   0.986   0.314   2.113 -0.0633  1.2116  0.6066
  845SOL     OW 2661   2.317   1.069   2.334 -0.9009 -0.1149  0.6117
  845SOL    HW1 2662   2.404   1.064   2.294 -0.8703 -0.1975  0.6895
  845SOL    HW2 2663   2.257   1.073   2.259 -0.8525 -0.4236  0.5536
  846SOL     OW 2664   1.482   1.535   0.212 -0.4143 -0.1199 -0.1265
  846SOL    HW1 2665   1.454   1.601   0.276 -0.9307  0.2303 -0.7020
  846SOL    HW2 2666   1.569   1.564   0.185 -0.6631  0.3738 -0.4209
  847SOL     OW 2667   1.178   2.020   0.923 -0.0945 -0.4362 -0.3414
  847SOL    HW1 2668   1.157   1.931   0.895 -1.5970 -0.7710  1.6074
  847SOL    HW2 2669   1.096   2.069   0.914 -0.0258  0.0208  1.1127
  848SOL     OW 2670   2.223   0.628   2.703 -0.7143  0.3180 -0.4225
  848SOL    HW1 2671   2.227   0.532   2.696 -1.1234  0.3650 -1.4423
  848SOL    HW2 2672   2.263   0.659   2.622 -0.0999  1.0233  0.1466
  849SOL     OW 2673   3.658   3.654   0.545  0.2684 -0.1986  0.2762
  849SOL    HW1 2674   3.734   3.604   0.573  0.0990 -0.8179 -0.3675
  849SOL    HW2 2675   3.596   3.645   0.618  0.2858 -0.8239  0.2184
  850SOL     OW 2676   0.685   1.223   2.406  0.5143 -0.6277  0.0414
  850SOL    HW1 2677   0.693   1.231   2.501  2.0345  1.4675 -0.1774
  850SOL    HW2 2678   0.717   1.307   2.373  1.7809 -1.9720 -2.4105
  851SOL     OW 2679   3.536   0.891   1.434 -0.6328 -0.2254 -0.3567
  851SOL    HW1 2680   3.450   0.870   1.399  0.1846 -0.1092 -2.6061
  851SOL    HW2 2681   3.597   0.856   1.370  0.9567  0.9396  0.4506
  852SOL     OW 2682   0.957   0.334   3.295  0.2680 -0.6010 -0.1510
  852SOL    HW1 2683   1.012   0.261   3.264  1.7011 -0.5004  1.9504
  852SOL    HW2 2684   1.002   0.413   3.265 -0.3203 -0.5245 -0.8776
  853SOL     OW 2685   1.193   0.419   1.430 -0.0894  0.1736 -0.3136
  853SOL    HW1 2686   1.187   0.326   1.411 -0.3275 -0.2450  1.6302
  853SOL    HW2 2687   1.278   0.445   1.394  0.5778 -1.0922  0.3059
  854SOL     OW 2688   1.906   0.794   0.332 -0.1378 -0.0241 -0.0789
  854SOL    HW1 2689   1.981   0.756   0.286  0.6297  2.2003 -0.7820
  854SOL    HW2 2690   1.934   0.799   0.424 -0.1778 -0.9434 -0.0132
  855SOL     OW 2691   1.835   2.915   0.062  0.1092  0.0364  0.4559
  855SOL    HW1 2692   1.855   3.004   0.088 -0.2910 -0.2135  1.6901
  855SOL    HW2 2693   1.847   2.863   0.142 -0.7905 -0.8325  0.0489
  856SOL     OW 2694   0.796   1.462   1.397 -0.7396  0.5806 -0.2037
  856SOL    HW1 2695   0.833   1.481   1.311  0.9689  1.0328  0.5704
  856SOL    HW2 2696   0.784   1.367   1.397  0.2084  0.4435 -0.6024
  857SOL     OW 2697   2.448   0.068   2.470 -0.4008 -0.2118 -0.2744
  857SOL    HW1 2698   2.370   0.084   2.417 -0.7585 -2.0802 -0.3656
  857SOL    HW2 2699   2.495   0.152   2.468 -2.0270  0.7471 -0.7941
  858SOL     OW 2700   1.332   0.278   3.487 -0.1546  0.0782  0.4407
  858SOL    HW1 2701   1.353   0.185   3.492  0.0009  0.1564  1.3898
  858SOL    HW2 2702   1.300   0.290   3.398  0.9244 -0.6511 -0.0697
  859SOL     OW 2703   0.816   2.411   1.007  0.2672  0.0005  0.5388
  859SOL    HW1 2704   0.825   2.468   1.084  1.3440  0.2814  0.2229
  859SOL    HW2 2705   0.905   2.406   0.971 -0.4501  1.0553 -1.5111
  860SOL     OW 2706   1.728   0.263   1.410 -0.4492 -0.1443  0.3578
  860SOL    HW1 2707   1.804   0.321   1.402 -0.0405 -0.7192  0.0611
  860SOL    HW2 2708   1.733   0.230   1.500  0.9737 -1.9799 -0.3479
  861SOL     OW 2709   0.881   0.328   3.563 -0.6167  0.1077 -0.3939
  861SOL    HW1 2710   0.796   0.371   3.552  0.6289  3.1913  0.9247
  861SOL    HW2 2711   0.914   0.318   3.474 -1.1905  1.4712 -0.7914
  862SOL     OW 2712   3.649   2.712   1.312  0.3322 -0.2645 -0.2405
  862SOL    HW1 2713   3.649   2.757   1.227 -0.3190  0.2505  0.0253
  862SOL    HW2 2714   3.598   2.769   1.369 -0.1306 -1.1339  0.2218
  863SOL     OW 2715   0.615   3.473   1.695  0.6330  0.3125  0.1128
  863SOL    HW1 2716   0.659   3.428   1.767 -1.0873 -1.7570 -0.0149
  863SOL    HW2 2717   0.567   3.544   1.738 -0.5426 -1.0166  1.1456
  864SOL     OW 2718   3.306   1.350   0.314 -0.0270  0.3656 -0.6598
  864SOL    HW1 2719   3.237   1.362   0.379  0.5625  1.6238 -0.2310
  864SOL    HW2 2720   3.262   1.313   0.238 -1.1493  1.0217 -0.3423
  865SOL     OW 2721   1.992   2.930   2.300 -0.3896 -0.1552  0.9824
  865SOL    HW1 2722   2.046   2.903   2.225 -0.9736 -1.6772  1.0887
  865SOL    HW2 2723   2.051   2.925   2.375  0.8834  3.5571  0.4519
  866SOL     OW 2724   3.658   0.861   1.968  0.1908 -0.7751 -0.3829
  866SOL    HW1 2725   3.730   0.799   1.978  0.6588  0.0061  1.4165
  866SOL    HW2 2726   3.697   0.947   1.985 -0.9103 -0.2157 -0.5653
  867SOL     OW 2727   1.537   3.267   0.877 -0.1880 -0.2378  0.3472
  867SOL    HW1 2728   1.483   3.221   0.813 -0.1750 -1.1910  1.0052
  867SOL    HW2 2729   1.583   3.198   0.925  0.1946  0.4764  1.0455
  868SOL     OW 2730   2.481   1.564   1.569  0.5931  0.2355  0.3763
  868SOL    HW1 2731   2.435   1.528   1.644  2.1089  0.9550  1.7064
  868SOL    HW2 2732   2.440   1.522   1.493 -1.3181 -0.1192  1.5553
  869SOL     OW 2733   1.312   2.803   0.661 -0.4800 -0.1063 -0.1662
  869SOL    HW1 2734   1.271   2.882   0.626 -1.4672  0.1245  1.3926
  869SOL    HW2 2735   1.399   2.831   0.689 -0.7026  0.3440  0.0788
  870SOL     OW 2736   0.535   0.989   0.726 -0.3604  0.3221  0.4456
  870SOL    HW1 2737   0.517   1.083   0.720 -1.6160  0.2785  2.5004
  870SOL    HW2 2738   0.570   0.978   0.815 -1.2264 -1.2615  0.6223
  871SOL     OW 2739   0.606   2.645   2.391 -0.3411  0.4121 -0.1372
  871SOL    HW1 2740   0.647   2.709   2.449 -0.0247  0.4548 -0.4040
  871SOL    HW2 2741   0.662   2.568   2.397 -0.9570  0.0043  0.5153
  872SOL     OW 2742   1.980   0.881   1.986 -0.2470 -0.5993  0.4920
  872SOL    HW1 2743   2.038   0.955   2.001  0.2088 -0.9188  0.3322
  872SOL    HW2 2744   1.911   0.891   2.050 -1.0957  0.8803 -0.5874
  873SOL     OW 2745   0.971   2.404   3.408  0.5729 -0.5142 -0.1828
  873SOL    HW1 2746   0.929   2.448   3.482  0.7947 -0.6669  0.0353
  873SOL    HW2 2747   0.903   2.402   3.340 -0.0914 -1.5599  0.4707
  874SOL     OW 2748   1.248   3.626   3.280 -0.4953  0.1173  1.2193
  874SOL    HW1 2749   1.235   3.535   3.254  0.4867 -0.1013  1.4648
  874SOL    HW2 2750   1.166   3.650   3.323 -1.7393  0.1309 -0.9815
  875SOL     OW 2751   1.767   3.147   3.512  0.2075  0.1116 -0.3614
  875SOL    HW1 2752   1.857   3.178   3.516  0.6337 -1.0287 -0.8173
  875SOL    HW2 2753   1.737   3.169   3.424 -0.1632  1.0240 -0.0112
  876SOL     OW 2754   2.897   3.306   1.316  0.5585 -0.0181 -0.7553
  876SOL    HW1 2755   2.821   3.330   1.262 -0.9809 -0.1155  1.2398
  876SOL    HW2 2756   2.903   3.211   1.308  0.2731 -0.0442 -0.6662
  877SOL     OW 2757   3.050   2.001   1.681  0.3045 -0.8515  0.2545
  877SOL    HW1 2758   3.083   2.013   1.592 -0.1698  1.2558  0.3030
  877SOL    HW2 2759   2.960   1.969   1.668 -0.2492  0.7562 -0.1022
  878SOL     OW 2760   1.773   0.056   2.975  0.5551  0.2310 -0.0769
  878SOL    HW1 2761   1.771   0.138   3.024  0.8257 -0.0574  0.4310
  878SOL    HW2 2762   1.813   0.079   2.891 -0.4335  0.8404 -0.3851
  879SOL     OW 2763   1.981   3.483   2.846 -0.1352 -0.0035  0.1890
  879SOL    HW1 2764   2.025   3.446   2.770 -1.0179 -1.6585  0.4289
  879SOL    HW2 2765   1.929   3.555   2.811  1.1385  0.6659 -0.4040
  880SOL     OW 2766   3.285   1.438   0.812 -0.2766 -0.1843  0.1338
  880SOL    HW1 2767   3.240   1.489   0.745 -2.3263 -0.8584  0.9382
  880SOL    HW2 2768   3.299   1.353   0.771 -0.0911 -0.1132  0.0434
  881SOL     OW 2769   0.965   0.748   3.570 -0.0099 -0.0152  0.2380
  881SOL    HW1 2770   1.007   0.665   3.551  0.0780  0.3831 -1.5074
  881SOL    HW2 2771   0.883   0.746   3.520 -0.3452  0.6603  0.7351
  882SOL     OW 2772   1.346   3.594   2.708  0.2653  0.1671 -0.1024
  882SOL    HW1 2773   1.386   3.563   2.627 -0.7992  2.5555 -1.6302
  882SOL    HW2 2774   1.322   3.514   2.755  3.0959 -1.3060 -0.9553
  883SOL     OW 2775   2.190   1.737   3.313  0.0240 -0.3365  0.2472
  883SOL    HW1 2776   2.224   1.713   3.227  1.9751 -1.4068  1.2533
  883SOL    HW2 2777   2.108   1.783   3.294  1.2592  1.0540 -2.2608
  884SOL     OW 2778   0.721   0.736   3.411  0.0817  0.1125  0.8805
  884SOL    HW1 2779   0.722   0.685   3.330  1.3577  0.5881  0.5663
  884SOL    HW2 2780   0.645   0.703   3.460  0.2385 -1.3154  0.2129
  885SOL     OW 2781   2.616   0.713   3.236 -0.3623  0.2132 -0.3939
  885SOL    HW1 2782   2.657   0.784   3.285  1.4211 -1.3003  0.4264
  885SOL    HW2 2783   2.688   0.675   3.184 -1.3402 -0.7924 -1.0545
  886SOL     OW 2784   0.565   0.799   1.230 -0.1804 -0.2031  0.1414
  886SOL    HW1 2785   0.570   0.870   1.167 -1.4491 -0.9255 -0.8144
  886SOL    HW2 2786   0.572   0.719   1.177 -0.8433 -0.8161  0.9521
  887SOL     OW 2787   3.466   0.068   1.323 -0.1168  0.7083  0.2313
  887SOL    HW1 2788   3.403   0.129   1.285  0.6441  2.1406  1.1872
  887SOL    HW2 2789   3.535   0.123   1.360  2.1719 -0.7820 -1.4751
  888SOL     OW 2790   3.562   0.692   2.215 -0.0309  0.5059  0.8817
  888SOL    HW1 2791   3.616   0.690   2.136 -1.2162  1.0343  0.0254
  888SOL    HW2 2792   3.586   0.612   2.263 -0.5689 -0.7885 -0.9040
  889SOL     OW 2793   1.905   0.029   0.878  0.0716 -0.2519 -0.2086
  889SOL    HW1 2794   1.823   0.076   0.862  0.1634 -0.1405 -0.3595
  889SOL    HW2 2795   1.957   0.045   0.800  0.3969  0.0197  0.0575
  890SOL     OW 2796   1.625   0.074   0.781 -0.3579  0.5166  0.0280
  890SOL    HW1 2797   1.580  -0.006   0.809  4.2013 -3.0104 -1.3958
  890SOL    HW2 2798   1.606   0.082   0.688  0.9095 -0.3945 -0.3471
  891SOL     OW 2799   1.880   3.371   0.316  0.0516 -0.3874  0.0160
  891SOL    HW1 2800   1.884   3.375   0.412 -1.0079 -2.3672  0.2005
  891SOL    HW2 2801   1.788   3.349   0.297  0.1223  0.4933 -1.4934
  892SOL     OW 2802   1.674   2.828   3.233  0.8372  0.2262 -0.3367
  892SOL    HW1 2803   1.622   2.907   3.247  2.0515  0.7509  1.6027
  892SOL    HW2 2804   1.702   2.802   3.321  1.5120 -1.6550 -1.0588
  893SOL     OW 2805   1.030   2.316   0.310 -0.4499  0.2191  0.1087
  893SOL    HW1 2806   0.966   2.384   0.290  0.2191  0.5890 -0.8649
  893SOL    HW2 2807   0.979   2.247   0.351 -1.0625  1.4958  1.5899
  894SOL     OW 2808   1.138   0.548   3.584 -0.5038 -0.1921 -0.5336
  894SOL    HW1 2809   1.193   0.600   3.525 -1.1312  2.5543  1.1552
  894SOL    HW2 2810   1.198   0.520   3.653 -0.4587 -0.4853 -0.6911
  895SOL     OW 2811   0.845   0.515   0.069 -0.2310  0.0511  0.3050
  895SOL    HW1 2812   0.886   0.484  -0.012 -0.0380  0.4707  0.2377
  895SOL    HW2 2813   0.775   0.573   0.039 -1.7784 -1.7014  0.3766
  896SOL     OW 2814   0.492   0.607   0.156  0.7263 -0.0555  0.4045
  896SOL    HW1 2815   0.551   0.568   0.220 -0.3393 -0.4202  1.1853
  896SOL    HW2 2816   0.549   0.664   0.103  1.7874 -0.4803  1.0508
  897SOL     OW 2817   3.347   2.302   3.017 -0.2959  0.6052  0.2999
  897SOL    HW1 2818   3.403   2.371   2.979  0.1527 -0.0572 -0.2613
  897SOL    HW2 2819   3.340   2.326   3.109  0.6155  0.9039  0.3040
  898SOL     OW 2820   3.476   1.671   0.771  0.1000  0.0598  0.0705
  898SOL    HW1 2821   3.484   1.585   0.811  1.7524  0.5473  0.8486
  898SOL    HW2 2822   3.477   1.654   0.677  0.6741 -0.7456  0.2143
  899SOL     OW 2823   0.904   3.389   0.817 -0.1885 -0.0445  0.1219
  899SOL    HW1 2824   0.879   3.479   0.838  0.6562  0.2708 -0.1986
  899SOL    HW2 2825   0.899   3.342   0.901 -0.2610  0.3871  0.3593
  900SOL     OW 2826   3.566   2.657   0.698 -0.3363  0.3902 -0.0620
  900SOL    HW1 2827   3.619   2.577   0.700  0.3304  0.8342  1.4000
  900SOL    HW2 2828   3.631   2.728   0.701 -0.9141  1.0111 -1.4167
  901SOL     OW 2829   0.492   1.718   2.674 -0.0974  0.4357 -0.3093
  901SOL    HW1 2830   0.554   1.677   2.734  0.0412  0.4991 -0.4084
  901SOL    HW2 2831   0.512   1.679   2.589  1.4688  2.2316 -0.8229
  902SOL     OW 2832   3.563   3.153   1.598 -0.4444 -0.4570  0.3889
  902SOL    HW1 2833   3.505   3.169   1.523 -0.4696 -1.5069  0.1746
  902SOL    HW2 2834   3.594   3.241   1.623 -0.1596 -0.1127 -1.0755
  903SOL     OW 2835   3.209   1.397   1.065 -0.0081 -0.0357  0.0970
  903SOL    HW1 2836   3.220   1.430   0.975  1.2973  1.1293  0.6494
  903SOL    HW2 2837   3.228   1.473   1.121  1.0726 -1.2131  1.3925
  904SOL     OW 2838   2.085   2.597   2.297 -0.6573 -0.1651 -0.0948
  904SOL    HW1 2839   2.049   2.646   2.223  0.1293  0.7572  0.1094
  904SOL    HW2 2840   2.013   2.589   2.358 -1.5114 -1.5203 -1.2214
  905SOL     OW 2841   0.953   2.889   1.906 -0.0672 -0.1882 -0.1135
  905SOL    HW1 2842   0.991   2.908   1.992  1.0621 -0.9134 -0.4262
  905SOL    HW2 2843   1.025   2.906   1.845 -1.1251  1.2512 -1.0327
  906SOL     OW 2844   1.679   2.471   2.970 -0.2784  0.2375  0.0006
  906SOL    HW1 2845   1.731   2.551   2.978  1.2747 -0.9311  4.1465
  906SOL    HW2 2846   1.744   2.401   2.958 -1.4919 -0.6547 -1.8984
  907SOL     OW 2847   2.451   1.121  -0.006  0.2833  0.6589  0.1608
  907SOL    HW1 2848   2.426   1.096   0.083  1.7766 -2.2924 -0.1059
  907SOL    HW2 2849   2.370   1.152  -0.047 -0.2668  3.1222  2.7367
  908SOL     OW 2850   3.699   2.035   2.133  0.1871  0.6579  0.2102
  908SOL    HW1 2851   3.769   2.091   2.101  0.7271 -0.1592 -0.0424
  908SOL    HW2 2852   3.625   2.095   2.146 -0.5944  0.9030 -3.9260
  909SOL     OW 2853   1.715   3.033   1.458 -0.0609 -0.2071 -0.3526
  909SOL    HW1 2854   1.735   3.040   1.551  1.1555  2.1794 -0.7210
  909SOL    HW2 2855   1.769   2.960   1.428  0.4148 -0.2656  0.5970
  910SOL     OW 2856   1.428   1.066   3.451  0.1707 -0.2913  0.2466
  910SOL    HW1 2857   1.364   1.119   3.497 -0.7271 -0.0674 -1.1852
  910SOL    HW2 2858   1.388   1.049   3.365  3.0357  2.0954 -1.7784
  911SOL     OW 2859   1.996   1.707   0.843  0.1938  0.0899 -0.6008
  911SOL    HW1 2860   2.040   1.731   0.762  0.4758  0.8835 -0.2252
  911SOL    HW2 2861   2.067   1.691   0.905 -0.0004 -1.4487 -0.7542
  912SOL     OW 2862   1.143   1.034   1.429 -0.1551  0.3357 -0.1864
  912SOL    HW1 2863   1.130   0.946   1.394  0.5360  0.1911 -0.0860
  912SOL    HW2 2864   1.229   1.060   1.397  0.4547  0.2347  1.3037
  913SOL     OW 2865   3.032   2.039   2.560  0.4429  0.3747 -0.3107
  913SOL    HW1 2866   3.045   2.129   2.530  0.0365  0.5046 -0.0954
  913SOL    HW2 2867   3.021   1.989   2.479 -2.0705  0.9383 -0.3846
  914SOL     OW 2868   0.794   1.894   3.678 -0.3685 -0.5024 -0.1701
  914SOL    HW1 2869   0.859   1.853   3.621 -0.6262  1.6366 -2.1602
  914SOL    HW2 2870   0.824   1.984   3.688 -1.3574 -0.3102  1.6020
  915SOL     OW 2871   2.855   2.621   1.943 -0.2175  0.1253 -0.5121
  915SOL    HW1 2872   2.875   2.569   2.021  0.2412 -0.8984 -1.2889
  915SOL    HW2 2873   2.896   2.573   1.871  0.7630  1.8907 -1.1962
  916SOL     OW 2874   1.455   0.137   2.405  0.8765  0.0537  0.4818
  916SOL    HW1 2875   1.384   0.094   2.359 -0.6124  3.1066 -0.3146
  916SOL    HW2 2876   1.511   0.065   2.436 -0.4349 -2.2978 -2.1904
  917SOL     OW 2877   0.309   2.629   0.203  0.3534  0.2610  0.9882
  917SOL    HW1 2878   0.298   2.592   0.116  1.7820 -1.0301  1.3244
  917SOL    HW2 2879   0.223   2.664   0.225 -0.2340 -0.1025 -0.6074
  918SOL     OW 2880   1.806   3.628   3.656 -0.0077  0.7118  0.3607
  918SOL    HW1 2881   1.730   3.632   3.715 -0.5598 -0.1314 -0.2766
  918SOL    HW2 2882   1.806   3.712   3.611  1.2284  1.9485  2.5097
  919SOL     OW 2883   0.843   2.068   2.252 -0.5392  0.2473 -0.4520
  919SOL    HW1 2884   0.828   1.986   2.298 -1.6930  0.2715 -0.7740
  919SOL    HW2 2885   0.937   2.068   2.233 -0.2265 -0.2395  0.9708
  920SOL     OW 2886   0.296   3.273   0.422  0.2545  0.4735 -0.0689
  920SOL    HW1 2887   0.294   3.320   0.339  0.5819 -1.4442 -1.2180
  920SOL    HW2 2888   0.378   3.300   0.463 -0.0422  1.6412 -0.2229
  921SOL     OW 2889   2.504   1.645   2.145 -0.6591 -0.0765 -0.2011
  921SOL    HW1 2890   2.506   1.643   2.050  0.0876 -0.6079 -0.1828
  921SOL    HW2 2891   2.549   1.726   2.168 -0.5264 -0.1228 -0.2952
  922SOL     OW 2892   2.315   2.403   3.538  0.9774 -0.3220 -0.1118
  922SOL    HW1 2893   2.356   2.358   3.464 -1.2476 -0.1260 -1.5640
  922SOL    HW2 2894   2.365   2.484   3.547  0.7040  0.1157 -2.0922
  923SOL     OW 2895   1.874   1.935   2.630 -0.2963 -0.1703  0.0592
  923SOL    HW1 2896   1.798   1.945   2.687  1.4056 -2.2233  2.9563
  923SOL    HW2 2897   1.856   1.992   2.555 -3.0571  2.1409  2.2580
  924SOL     OW 2898   0.789   2.509   3.580  0.3600 -0.4126  0.5366
  924SOL    HW1 2899   0.702   2.469   3.579 -0.3341  1.0200 -0.3865
  924SOL    HW2 2900   0.773   2.601   3.603  1.4408  0.2173 -1.0476
  925SOL     OW 2901   0.782   2.298   1.557 -0.3028 -0.1497 -0.3432
  925SOL    HW1 2902   0.773   2.387   1.522 -0.3069 -0.4471 -1.1365
  925SOL    HW2 2903   0.740   2.243   1.491  0.9600 -0.8743 -0.5806
  926SOL     OW 2904   2.137   1.978   0.301 -0.2503 -0.2250  0.0505
  926SOL    HW1 2905   2.168   1.972   0.391  0.2993 -2.1651 -0.2134
  926SOL    HW2 2906   2.094   2.063   0.295  1.1086  0.6247  1.6821
  927SOL     OW 2907   2.799   1.206   2.806  0.7955 -0.6199 -0.0310
  927SOL    HW1 2908   2.817   1.120   2.844  3.1016 -0.6105 -0.9358
  927SOL    HW2 2909   2.817   1.268   2.877  1.6890 -0.7743 -0.1118
  928SOL     OW 2910   1.468   2.806   1.527  0.0062 -0.2957 -0.1467
  928SOL    HW1 2911   1.427   2.882   1.570  1.9637  1.1229 -0.6262
  928SOL    HW2 2912   1.454   2.821   1.434 -0.2000 -0.9202 -0.2204
  929SOL     OW 2913   1.965   0.122   2.799  0.4932 -0.6276 -0.0135
  929SOL    HW1 2914   2.008   0.159   2.722  1.4530  1.3514  1.3992
  929SOL    HW2 2915   2.033   0.123   2.867 -1.1144  0.4865  1.6660
  930SOL     OW 2916   2.301   0.184   1.342  0.0269 -0.2294  0.0152
  930SOL    HW1 2917   2.272   0.213   1.255 -2.4903  0.9626  1.1452
  930SOL    HW2 2918   2.384   0.228   1.356  0.9288 -1.1223 -2.0968
  931SOL     OW 2919   1.222   1.345   2.207  0.5832  0.2339 -0.7087
  931SOL    HW1 2920   1.154   1.387   2.260 -1.5800 -1.1049 -2.2827
  931SOL    HW2 2921   1.304   1.369   2.251 -0.8596  1.8891  1.2991
  932SOL     OW 2922   3.386   2.993   1.739 -0.2382 -0.4393  0.6004
  932SOL    HW1 2923   3.465   2.940   1.745 -0.3987 -0.6681  0.6820
  932SOL    HW2 2924   3.417   3.077   1.705  0.2299 -0.0823  1.8751
  933SOL     OW 2925   1.699   0.976   1.182 -0.0683 -0.4608  0.7203
  933SOL    HW1 2926   1.606   0.973   1.207 -0.2699 -0.4808 -0.0279
  933SOL    HW2 2927   1.719   0.887   1.154 -0.4912  0.0758 -1.4675
  934SOL     OW 2928   0.249   0.382   3.295  0.4366 -0.0268 -0.4146
  934SOL    HW1 2929   0.232   0.289   3.284 -0.6909  0.1804 -0.5729
  934SOL    HW2 2930   0.250   0.418   3.206 -1.6779  0.4980 -0.2901
  935SOL     OW 2931   1.057   3.519   1.853 -0.0752  0.6757  0.7500
  935SOL    HW1 2932   0.996   3.555   1.788  1.5572  3.6721  0.7263
  935SOL    HW2 2933   1.015   3.538   1.937  0.2793  1.7650  0.6981
  936SOL     OW 2934   2.129   0.529   1.343 -0.0591  0.1018 -0.3189
  936SOL    HW1 2935   2.121   0.453   1.285 -0.7945 -0.6276  0.7007
  936SOL    HW2 2936   2.183   0.497   1.416  1.3623  1.1757 -0.8554
  937SOL     OW 2937   3.219   2.924   3.138  0.3029 -0.0598 -0.0396
  937SOL    HW1 2938   3.128   2.937   3.112  0.5819 -1.8236 -2.1804
  937SOL    HW2 2939   3.239   2.834   3.111  2.6993  0.3229  0.2793
  938SOL     OW 2940   0.512   1.500   0.967  0.5922  0.0795 -0.3445
  938SOL    HW1 2941   0.425   1.529   0.938 -0.0229 -1.8327 -0.5742
  938SOL    HW2 2942   0.502   1.487   1.062  0.3116 -1.1045 -0.5257
  939SOL     OW 2943   1.930   0.260   2.035 -0.3212  0.4681  0.1033
  939SOL    HW1 2944   1.983   0.340   2.026 -0.6201  0.6944  0.3565
  939SOL    HW2 2945   1.907   0.237   1.945  0.4659  0.1890 -0.0401
  940SOL     OW 2946   0.671   2.386   2.282 -0.0443 -0.1494 -0.3420
  940SOL    HW1 2947   0.633   2.318   2.226  0.4089  0.5491 -1.5291
  940SOL    HW2 2948   0.764   2.388   2.258  0.0503  0.5300  0.0496
  941SOL     OW 2949   2.093   1.329   1.073 -0.4380  0.0759 -0.3479
  941SOL    HW1 2950   2.092   1.268   1.146  1.5994  1.9526  1.4313
  941SOL    HW2 2951   2.002   1.357   1.063 -0.9535 -1.1505  0.6165
  942SOL     OW 2952   1.065   0.757   2.612 -0.5552 -0.0957  0.6562
  942SOL    HW1 2953   1.140   0.801   2.652 -1.0570 -0.9215  2.6267
  942SOL    HW2 2954   1.083   0.761   2.518  1.6234  0.3272  1.0208
  943SOL     OW 2955   0.453   1.253   0.680 -0.2743 -0.1238  0.6048
  943SOL    HW1 2956   0.360   1.234   0.668 -0.4461  0.9979  0.0577
  943SOL    HW2 2957   0.462   1.345   0.655  1.0488 -0.3159  0.3326
  944SOL     OW 2958   2.479   0.348   0.412  0.2533  0.4038  0.0697
  944SOL    HW1 2959   2.426   0.419   0.447 -0.3955 -0.0068 -0.0595
  944SOL    HW2 2960   2.521   0.309   0.489 -1.9764 -1.1579  0.6113
  945SOL     OW 2961   2.740   0.362   2.734 -0.2786  0.0117 -0.4275
  945SOL    HW1 2962   2.705   0.447   2.762  0.8035  0.3162  0.0673
  945SOL    HW2 2963   2.721   0.358   2.640 -0.0434  0.9641 -0.5283
  946SOL     OW 2964   1.311   0.072   3.009  0.4951 -0.4728 -0.5551
  946SOL    HW1 2965   1.376   0.104   3.072  0.2181 -3.2770  1.3316
  946SOL    HW2 2966   1.289  -0.015   3.040 -3.0098 -0.2687 -2.0776
  947SOL     OW 2967   2.077   0.782   3.041  0.2407  0.4118 -0.0648
  947SOL    HW1 2968   2.108   0.859   3.089 -0.9723  0.8116  0.1058
  947SOL    HW2 2969   2.049   0.817   2.956  1.7091 -0.1839 -0.8426
  948SOL     OW 2970   3.643   0.873   2.957 -0.9333  0.2277  0.4519
  948SOL    HW1 2971   3.637   0.944   3.021 -1.6181  1.5524 -1.0197
  948SOL    HW2 2972   3.613   0.912   2.875  1.5435 -0.8911 -1.1055
  949SOL     OW 2973   3.654   3.480   1.557  0.5731 -0.2342 -0.7677
  949SOL    HW1 2974   3.675   3.571   1.575  0.1176  0.0247 -1.5159
  949SOL    HW2 2975   3.592   3.483   1.484  0.7379 -1.1506 -0.9606
  950SOL     OW 2976   2.062   3.663   1.766 -0.7872 -0.0396 -0.7784
  950SOL    HW1 2977   2.148   3.639   1.732  0.1255  2.1099 -0.1485
  950SOL    HW2 2978   2.028   3.582   1.806  0.3810 -1.2235 -2.1058
  951SOL     OW 2979   1.264   0.471   2.493 -0.6176 -0.5444 -0.6409
  951SOL    HW1 2980   1.346   0.443   2.452  0.9716  0.7937  1.4101
  951SOL    HW2 2981   1.272   0.566   2.502 -1.6587 -0.5710  1.0731
  952SOL     OW 2982   0.524   0.496   1.453 -0.0669  0.8591  0.4638
  952SOL    HW1 2983   0.436   0.528   1.436 -0.0701  0.3304 -0.5565
  952SOL    HW2 2984   0.514   0.403   1.471  0.0108  1.2428  2.8769
  953SOL     OW 2985   2.764   0.428   1.028  0.3618  0.2102  0.2434
  953SOL    HW1 2986   2.782   0.520   1.046  0.3384 -0.0344  1.6652
  953SOL    HW2 2987   2.780   0.384   1.112  0.8534 -1.1530 -0.5486
  954SOL     OW 2988   2.205   2.032   3.587 -0.0228  0.0779 -0.1675
  954SOL    HW1 2989   2.166   2.118   3.599  2.2869  0.9604  1.7120
  954SOL    HW2 2990   2.243   2.035   3.499 -1.5134  0.2376 -0.8441
  955SOL     OW 2991   1.358   1.880   1.978  0.4372 -0.2910  0.4360
  955SOL    HW1 2992   1.273   1.866   2.021 -0.2133 -0.5687 -0.9060
  955SOL    HW2 2993   1.357   1.973   1.953  1.4233  0.2631  2.2300
  956SOL     OW 2994   1.660   2.245   1.818  0.4130  0.1552 -0.2941
  956SOL    HW1 2995   1.749   2.278   1.801  1.4157 -2.1385  0.0770
  956SOL    HW2 2996   1.634   2.203   1.736 -0.4231  0.9531 -0.4517
  957SOL     OW 2997   0.968   1.625   2.857 -0.3650 -0.3861 -0.4371
  957SOL    HW1 2998   0.885   1.579   2.855 -0.0632 -0.9636 -2.5310
  957SOL    HW2 2999   0.950   1.709   2.815 -0.0113 -0.2873 -0.3957
  958SOL     OW 3000   3.287   1.588   1.282 -0.5991  0.3922  0.0677
  958SOL    HW1 3001   3.347   1.597   1.356  1.3248  0.3279 -1.3939
  958SOL    HW2 3002   3.324   1.644   1.214 -1.9369 -0.0518 -1.0865
  959SOL     OW 3003   2.685   2.775   2.855 -0.3750  0.3041  0.0871
  959SOL    HW1 3004   2.710   2.758   2.946 -2.6672  0.2051  0.7635
  959SOL    HW2 3005   2.658   2.689   2.821  0.0004  0.4259 -0.5366
  960SOL     OW 3006   1.872   0.575   2.109  0.3709 -0.3300  0.3891
  960SOL    HW1 3007   1.941   0.509   2.117  0.6281 -0.1515 -0.2486
  960SOL    HW2 3008   1.794   0.533   2.142  0.5514 -0.9316  0.0708
  961SOL     OW 3009   3.390   0.253   0.385 -0.3333 -0.2179 -0.6922
  961SOL    HW1 3010   3.425   0.330   0.429 -0.4224 -0.1704 -0.7039
  961SOL    HW2 3011   3.316   0.226   0.439  1.0915 -1.6827  0.6145
  962SOL     OW 3012   1.270   2.104   0.307  0.4810 -0.4275 -0.3826
  962SOL    HW1 3013   1.245   2.033   0.247 -0.3540  1.1469 -2.0241
  962SOL    HW2 3014   1.187   2.145   0.332  0.9320 -0.0968  0.6166
  963SOL     OW 3015   3.234   0.775   2.245 -0.2238  0.0515  0.3067
  963SOL    HW1 3016   3.201   0.738   2.163 -2.9635 -0.9162  1.7060
  963SOL    HW2 3017   3.290   0.706   2.281 -1.0855 -0.6045  0.4241
  964SOL     OW 3018   2.792   3.558   0.064  0.2286 -0.2566  0.2866
  964SOL    HW1 3019   2.807   3.464   0.050 -1.6536 -0.8360  1.7708
  964SOL    HW2 3020   2.745   3.587  -0.014 -0.1743 -0.8094  0.3204
  965SOL     OW 3021   0.504   1.976   1.691  0.1293  0.6824  0.1437
  965SOL    HW1 3022   0.418   1.981   1.648  0.2540 -0.5254 -0.2723
  965SOL    HW2 3023   0.539   2.065   1.684 -1.0466  1.1728  0.2456
  966SOL     OW 3024   3.029   3.235   3.360  0.1730 -0.0308  0.4766
  966SOL    HW1 3025   3.030   3.172   3.433  1.3152  0.6341  1.0614
  966SOL    HW2 3026   3.040   3.320   3.403  0.5119  0.3977 -0.4505
  967SOL     OW 3027   3.411   0.644   1.096  0.8842  0.3867 -0.1961
  967SOL    HW1 3028   3.381   0.722   1.141 -1.4872  1.1521 -2.7634
  967SOL    HW2 3029   3.442   0.586   1.165 -0.5222  2.2497  2.1397
  968SOL     OW 3030   0.959   3.298   0.121  0.0751 -0.3479  0.2258
  968SOL    HW1 3031   0.971   3.389   0.094  1.4828 -0.4433  0.4638
  968SOL    HW2 3032   1.048   3.265   0.135 -0.3107 -2.2072 -1.3270
  969SOL     OW 3033   0.108   3.096   2.705  0.7002 -0.0256  0.0392
  969SOL    HW1 3034   0.114   3.104   2.610  0.6082  0.7655  0.0953
  969SOL    HW2 3035   0.160   3.169   2.739  2.3296 -1.3891  0.6223
  970SOL     OW 3036   2.378   0.673   1.492 -0.6534 -0.2294 -0.1136
  970SOL    HW1 3037   2.469   0.671   1.523  0.4574  0.3592 -3.0149
  970SOL    HW2 3038   2.335   0.602   1.539  1.6012 -1.2552  0.5285
  971SOL     OW 3039   2.324   3.330   0.872  0.0911 -0.0398  0.3754
  971SOL    HW1 3040   2.371   3.404   0.912  0.0453 -0.6240  1.5480
  971SOL    HW2 3041   2.385   3.295   0.808  0.2924  0.7267  0.1313
  972SOL     OW 3042   2.710   0.855   2.953 -0.1127 -0.0275  0.2203
  972SOL    HW1 3043   2.627   0.894   2.926  0.2983  0.6167 -0.1254
  972SOL    HW2 3044   2.700   0.762   2.936 -0.5956  0.1109 -0.2531
  973SOL     OW 3045   3.281   1.852   0.772 -0.2941 -0.0539  0.5359
  973SOL    HW1 3046   3.254   1.880   0.685  0.6910  0.5012  0.3992
  973SOL    HW2 3047   3.336   1.776   0.757  1.7662  1.3627  0.4570
  974SOL     OW 3048   1.718   2.899   2.039  0.0538  0.6935  0.3230
  974SOL    HW1 3049   1.643   2.855   1.999  0.3978  0.1683  0.2403
  974SOL    HW2 3050   1.788   2.833   2.037  0.3746  1.0158  0.8407
  975SOL     OW 3051   2.642   0.578   2.900 -0.1000 -0.5807 -0.3806
  975SOL    HW1 3052   2.551   0.598   2.923  0.5914  2.5673  0.1216
  975SOL    HW2 3053   2.669   0.513   2.964 -0.5169  2.3232  3.1039
  976SOL     OW 3054   1.541   2.460   2.575 -0.1020  0.0601  0.4205
  976SOL    HW1 3055   1.517   2.461   2.667 -1.8444  0.6171 -0.0045
  976SOL    HW2 3056   1.598   2.384   2.565 -1.0560 -0.8412  1.6761
  977SOL     OW 3057   0.718   3.525   1.178 -0.5488  0.1079 -0.0710
  977SOL    HW1 3058   0.673   3.441   1.165 -1.3244  0.4200  0.5281
  977SOL    HW2 3059   0.748   3.550   1.090  1.2557 -1.6348 -0.0416
  978SOL     OW 3060   2.666   0.807   0.963 -0.1851  0.1828 -0.7957
  978SOL    HW1 3061   2.689   0.760   1.042  0.1970  1.0736 -0.3697
  978SOL    HW2 3062   2.743   0.799   0.906  0.4574  1.4722 -0.1570
  979SOL     OW 3063   2.848   1.751   2.624  0.4358  0.1436 -0.5009
  979SOL    HW1 3064   2.913   1.814   2.654  1.1231 -1.0330  0.6108
  979SOL    HW2 3065   2.899   1.672   2.604 -0.3138  0.0933 -2.4475
  980SOL     OW 3066   3.629   1.102   3.410  0.4766  0.2439 -0.3552
  980SOL    HW1 3067   3.544   1.127   3.447 -0.3274 -2.6183 -0.0591
  980SOL    HW2 3068   3.636   1.008   3.427  2.2365 -0.2793 -3.2831
  981SOL     OW 3069   0.325   2.101   3.408 -0.4836 -0.0297 -0.0685
  981SOL    HW1 3070   0.267   2.029   3.433 -0.2217 -0.1366  0.2477
  981SOL    HW2 3071   0.411   2.059   3.401 -0.3437  0.2387  0.0464
  982SOL     OW 3072   0.054   1.750   1.558  0.6118  0.5376 -0.3974
  982SOL    HW1 3073   0.129   1.775   1.613 -0.5691  1.3867  0.8767
  982SOL    HW2 3074   0.075   1.661   1.529  2.5278  1.0670 -0.8341
  983SOL     OW 3075   2.889   0.659   0.874 -0.1426 -0.0738 -0.1653
  983SOL    HW1 3076   2.962   0.715   0.845  0.5733 -0.6997  0.3707
  983SOL    HW2 3077   2.913   0.571   0.844 -1.2861 -0.0928 -1.0561
  984SOL     OW 3078   3.202   2.083   3.697 -0.7007 -0.3933 -0.4444
  984SOL    HW1 3079   3.188   2.007   3.641 -0.2985 -0.8147  0.0227
  984SOL    HW2 3080   3.198   2.158   3.637  0.1643 -0.8630 -1.1131
  985SOL     OW 3081   1.089   2.070   1.752  0.4103 -0.2148  0.3334
  985SOL    HW1 3082   1.012   2.119   1.783  1.7739  0.2126  3.3842
  985SOL    HW2 3083   1.089   1.990   1.804  0.7386 -1.3657 -1.3753
  986SOL     OW 3084   0.272   0.797   0.443 -0.2123  0.0281 -0.0900
  986SOL    HW1 3085   0.272   0.871   0.382 -0.6883  0.7241  0.7433
  986SOL    HW2 3086   0.364   0.779   0.460 -0.0625  2.3434  1.9763
  987SOL     OW 3087   2.402   1.184   0.417  0.1587  0.1876  0.6075
  987SOL    HW1 3088   2.353   1.152   0.341 -1.5966  2.3448  0.7601
  987SOL    HW2 3089   2.347   1.162   0.492  0.9497 -0.1433  1.1077
  988SOL     OW 3090   2.776   0.256   1.235  0.1524 -0.1615  0.1090
  988SOL    HW1 3091   2.857   0.252   1.285  1.6811 -2.2578 -2.2871
  988SOL    HW2 3092   2.743   0.165   1.234 -0.3301 -0.0134 -1.7852
  989SOL     OW 3093   0.727   0.409   2.295 -0.4759  0.1700  0.1869
  989SOL    HW1 3094   0.759   0.480   2.350 -0.7032 -0.4786  1.1776
  989SOL    HW2 3095   0.794   0.398   2.228 -1.1649  2.3497 -0.9291
  990SOL     OW 3096   1.539   3.146   1.259  0.1590  0.3233 -0.2577
  990SOL    HW1 3097   1.514   3.230   1.295 -1.1536 -0.7708  1.5396
  990SOL    HW2 3098   1.603   3.111   1.321  0.9600  0.1089 -1.1706
  991SOL     OW 3099   0.774   0.175   1.667  0.3431 -0.1509  0.0671
  991SOL    HW1 3100   0.816   0.111   1.725  0.9243  0.6469  0.5500
  991SOL    HW2 3101   0.810   0.259   1.695  0.7358  0.2430 -1.5627
  992SOL     OW 3102   2.982   2.791   2.150 -0.1151  0.3563  0.0696
  992SOL    HW1 3103   2.989   2.807   2.056 -0.3720 -0.0645 -0.0207
  992SOL    HW2 3104   3.066   2.821   2.186 -0.4955  1.7566 -0.1167
  993SOL     OW 3105   0.504   0.414   0.591  0.4924 -0.1329  1.0804
  993SOL    HW1 3106   0.573   0.366   0.637  1.2131  1.7220  2.0242
  993SOL    HW2 3107   0.436   0.348   0.575  0.9286 -1.2375  3.3402
  994SOL     OW 3108   1.503   1.091   2.826  0.0809 -0.1878 -0.4386
  994SOL    HW1 3109   1.541   1.179   2.834  1.0414 -0.3755 -2.4250
  994SOL    HW2 3110   1.409   1.105   2.835  0.3567  0.2925  4.6741
  995SOL     OW 3111   0.381   3.658   3.346  0.0719  0.0655 -0.4922
  995SOL    HW1 3112   0.380   3.564   3.361  0.5616  0.1153 -0.1404
  995SOL    HW2 3113   0.289   3.684   3.348 -0.1492 -0.5676 -1.6680
  996SOL     OW 3114   2.834   1.370   1.285  0.2263  0.0789 -0.1491
  996SOL    HW1 3115   2.826   1.375   1.380  1.9939 -1.3447  0.1424
  996SOL    HW2 3116   2.772   1.302   1.259  1.0697 -0.8531  0.2395
  997SOL     OW 3117   3.122   1.781   2.785 -0.1697 -0.0456  0.1424
  997SOL    HW1 3118   3.167   1.846   2.730  1.0261  0.2259  1.3961
  997SOL    HW2 3119   3.190   1.718   2.808 -1.0989 -1.2302 -0.2486
  998SOL     OW 3120   3.621   2.781   1.014  0.1202  0.3063  0.5356
  998SOL    HW1 3121   3.654   2.726   0.942  2.6336  1.6124  0.5734
  998SOL    HW2 3122   3.551   2.832   0.974 -0.6931 -1.2240 -0.1024
  999SOL     OW 3123   0.299   3.413   3.156  0.5884  0.1888  0.3835
  999SOL    HW1 3124   0.283   3.326   3.193 -0.2540  0.0161 -0.3452
  999SOL    HW2 3125   0.359   3.397   3.084  2.3851  0.5500  1.7327
 1000SOL     OW 3126   2.866   0.388   2.418 -0.3348  0.2970 -0.5558
 1000SOL    HW1 3127   2.819   0.306   2.434 -0.0857 -0.0829 -1.6513
 1000SOL    HW2 3128   2.847   0.409   2.326 -0.9229  1.8234 -0.1024
 1001SOL     OW 3129   2.202   1.754   0.673  0.6717  0.3857  0.2934
 1001SOL    HW1 3130   2.282   1.731   0.720  1.2961 -0.0496 -0.9271
 1001SOL    HW2 3131   2.198   1.691   0.601 -0.2925  0.9644 -0.1750
 1002SOL     OW 3132   2.789   2.755   3.108 -0.3038  0.3960 -0.2054
 1002SOL    HW1 3133   2.808   2.846   3.133 -1.4143  0.4210  0.6087
 1002SOL    HW2 3134   2.736   2.721   3.180 -4.7087  0.8004 -2.9309
 1003SOL     OW 3135   0.297   0.265   1.338  0.2875  0.2336 -0.5533
 1003SOL    HW1 3136   0.323   0.357   1.336 -0.1602  0.3548 -0.9298
 1003SOL    HW2 3137   0.207   0.264   1.306 -0.4540 -0.0888  1.3509
 1004SOL     OW 3138   0.294   1.226   3.160 -0.5936 -0.3130 -0.4817
 1004SOL    HW1 3139   0.257   1.151   3.113 -0.7088  0.1204 -1.1005
 1004SOL    HW2 3140   0.380   1.196   3.190 -0.1440 -0.3300 -1.7321
 1005SOL     OW 3141   3.632   3.515   1.193 -0.0590  0.0342 -0.5329
 1005SOL    HW1 3142   3.576   3.559   1.257 -1.2903  1.2753 -2.3547
 1005SOL    HW2 3143   3.652   3.430   1.233 -1.2395  0.5131  1.2178
 1006SOL     OW 3144   0.716   0.776   0.067  0.1936  0.0398  0.2954
 1006SOL    HW1 3145   0.701   0.855   0.015  2.1623  0.2624 -0.0239
 1006SOL    HW2 3146   0.794   0.796   0.118 -1.1878 -0.4790  2.7799
 1007SOL     OW 3147   1.585   3.673   1.957  0.1557 -0.2471  0.1498
 1007SOL    HW1 3148   1.502   3.670   1.909  0.8222 -0.4964 -1.0385
 1007SOL    HW2 3149   1.651   3.691   1.890  0.9209  1.3375  1.2778
 1008SOL     OW 3150   3.432   3.085   3.251  0.2463  0.5798  0.3097
 1008SOL    HW1 3151   3.437   3.071   3.345 -0.1014 -0.0587  0.2405
 1008SOL    HW2 3152   3.344   3.055   3.227  0.0390  1.4769 -0.1003
 1009SOL     OW 3153   2.988   2.513   3.594  0.3204  0.1549  0.6847
 1009SOL    HW1 3154   3.057   2.555   3.544 -0.8715  1.9679  0.4539
 1009SOL    HW2 3155   2.991   2.554   3.680  1.1349 -1.5936  1.5492
 1010SOL     OW 3156   0.233   2.664   2.991 -0.1124  0.2757 -0.1665
 1010SOL    HW1 3157   0.288   2.608   3.046  3.5983  3.2773 -0.3888
 1010SOL    HW2 3158   0.187   2.721   3.053 -0.3936 -0.0617 -0.0619
 1011SOL     OW 3159   2.732   1.646   2.363  0.0027 -0.2341  0.5042
 1011SOL    HW1 3160   2.735   1.730   2.317 -0.5241 -0.2609  0.4229
 1011SOL    HW2 3161   2.724   1.670   2.455 -1.6330 -0.1909  0.3792
 1012SOL     OW 3162   0.059   0.170   1.209  0.3955 -0.8048  0.1216
 1012SOL    HW1 3163   0.098   0.087   1.239  0.2148 -1.0975 -0.4522
 1012SOL    HW2 3164   0.072   0.170   1.115 -0.6246 -0.7064 -0.0269
 1013SOL     OW 3165   0.708   1.611   3.550 -0.2514 -0.7460 -0.1560
 1013SOL    HW1 3166   0.798   1.603   3.581  0.3828  1.3879 -1.2612
 1013SOL    HW2 3167   0.662   1.658   3.620  0.1407  0.3762 -0.6354
 1014SOL     OW 3168   3.520   1.053   1.677  0.3848 -0.0966 -0.5835
 1014SOL    HW1 3169   3.446   1.056   1.738  1.3752 -0.5138  0.6976
 1014SOL    HW2 3170   3.498   0.983   1.615 -1.0975  1.0060 -1.3582
 1015SOL     OW 3171   1.824   2.774   0.292  0.2521 -0.0151  0.0020
 1015SOL    HW1 3172   1.772   2.789   0.371 -0.8790 -1.1421 -0.4876
 1015SOL    HW2 3173   1.899   2.724   0.322  0.4631  0.6063  0.5390
 1016SOL     OW 3174   3.361   1.416  -0.005  0.0277 -0.0812  0.5672
 1016SOL    HW1 3175   3.448   1.377  -0.005  0.6692  1.2658 -0.6003
 1016SOL    HW2 3176   3.302   1.343   0.014  1.3418 -1.1533  0.6680
 1017SOL     OW 3177   2.494   0.601   3.511 -0.3914 -0.1229  0.8077
 1017SOL    HW1 3178   2.557   0.585   3.441 -1.6314  1.1722 -0.7012
 1017SOL    HW2 3179   2.455   0.515   3.528 -1.5871 -0.1694 -1.6949
 1018SOL     OW 3180   3.331   2.854   2.834  0.1294 -0.1929  0.0950
 1018SOL    HW1 3181   3.284   2.858   2.751  0.1519 -0.7854  0.0433
 1018SOL    HW2 3182   3.322   2.941   2.872  0.5347  0.2396 -0.7563
 1019SOL     OW 3183   0.201   1.917   3.608  0.4478 -0.1340 -0.0259
 1019SOL    HW1 3184   0.173   1.831   3.639  0.8664 -1.2000 -2.4155
 1019SOL    HW2 3185   0.296   1.911   3.601  0.4578  0.4235 -0.4766
 1020SOL     OW 3186   3.217   3.427   1.057  0.8183  0.4430  0.4558
 1020SOL    HW1 3187   3.306   3.396   1.074 -0.1762 -1.3557  3.0438
 1020SOL    HW2 3188   3.186   3.461   1.141 -1.1429  0.4966 -0.2224
 1021SOL     OW 3189   3.089   0.233   0.186  0.0180 -0.0531  0.5503
 1021SOL    HW1 3190   3.080   0.148   0.142 -0.6171  0.0123  0.5428
 1021SOL    HW2 3191   3.166   0.272   0.147  0.1817 -0.5317  0.3863
 1022SOL     OW 3192   2.216   1.555   0.488  0.2730  0.4900  0.2074
 1022SOL    HW1 3193   2.303   1.530   0.456  0.6487 -0.2356  1.6924
 1022SOL    HW2 3194   2.158   1.487   0.455  0.3926  0.5893 -0.2082
 1023SOL     OW 3195   0.661   2.832   0.553  0.0279 -0.1708 -0.2917
 1023SOL    HW1 3196   0.656   2.906   0.493  1.8080 -0.3936 -0.7807
 1023SOL    HW2 3197   0.710   2.866   0.628  2.7247 -1.3275 -1.4146
 1024SOL     OW 3198   2.295   0.086   3.062  0.1717  0.3027  0.3098
 1024SOL    HW1 3199   2.202   0.107   3.069  0.4624  1.9070 -0.2064
 1024SOL    HW2 3200   2.307   0.010   3.119 -1.4470  0.0563  0.3724
 1025SOL     OW 3201   0.997   2.833   2.654 -0.1793  0.3541 -0.4977
 1025SOL    HW1 3202   1.007   2.808   2.562 -0.8396  1.2668 -0.8288
 1025SOL    HW2 3203   0.934   2.770   2.689 -0.3412  0.3378 -0.8124
 1026SOL     OW 3204   2.282   1.323   0.152  0.5524  0.6451  0.0830
 1026SOL    HW1 3205   2.245   1.286   0.231 -0.7928 -0.2921 -0.9378
 1026SOL    HW2 3206   2.264   1.417   0.158 -0.1907  0.4721  0.5483
 1027SOL     OW 3207   0.886   3.608   1.647 -0.6756  0.1029  0.2057
 1027SOL    HW1 3208   0.794   3.624   1.669 -0.8041 -0.1265 -0.1730
 1027SOL    HW2 3209   0.887   3.595   1.553 -0.4538 -1.2685  0.3799
 1028SOL     OW 3210   3.458   1.718   2.577 -0.2143 -0.1403  0.5149
 1028SOL    HW1 3211   3.415   1.753   2.499 -0.5587  0.0326  0.7814
 1028SOL    HW2 3212   3.407   1.752   2.651 -0.1189 -0.6107  0.8022
 1029SOL     OW 3213   0.472   2.968   0.006 -0.2398 -0.0147  0.2896
 1029SOL    HW1 3214   0.467   2.922   0.089  1.6764 -1.6399 -0.4076
 1029SOL    HW2 3215   0.388   2.952  -0.036 -0.8013 -0.1311  1.4321
 1030SOL     OW 3216   2.437   3.661   0.703  0.2299 -0.2300 -0.1371
 1030SOL    HW1 3217   2.358   3.609   0.689  0.9327 -1.5071  0.4726
 1030SOL    HW2 3218   2.469   3.634   0.789  1.9159 -0.5481 -0.8163
 1031SOL     OW 3219   1.659   0.702   1.031 -0.6627  0.4572 -0.0237
 1031SOL    HW1 3220   1.632   0.642   0.961 -1.4325 -1.3633  1.7467
 1031SOL    HW2 3221   1.616   0.668   1.109 -0.4627  2.8902  1.2294
 1032SOL     OW 3222   3.681   1.124   1.266  0.0218  0.7911 -0.0574
 1032SOL    HW1 3223   3.587   1.141   1.266 -0.1389  0.4082 -2.7268
 1032SOL    HW2 3224   3.720   1.201   1.226  0.8068  0.7202  0.5364
 1033SOL     OW 3225   1.180   1.866   0.448  0.4654 -0.0227 -0.0850
 1033SOL    HW1 3226   1.187   1.926   0.522 -1.9879  1.5958 -1.0530
 1033SOL    HW2 3227   1.155   1.921   0.374  3.1175 -1.5160 -2.2801
 1034SOL     OW 3228   1.149   0.313   0.083 -0.5390  0.6734  0.0926
 1034SOL    HW1 3229   1.075   0.338   0.028 -1.5797 -3.2066 -0.6002
 1034SOL    HW2 3230   1.115   0.316   0.172 -1.7365 -1.1911 -0.2248
 1035SOL     OW 3231   0.159   2.374   1.194 -0.1652 -0.0819 -0.1337
 1035SOL    HW1 3232   0.220   2.301   1.184  1.4977  1.4784 -2.5281
 1035SOL    HW2 3233   0.200   2.432   1.258 -0.8446 -0.5742  0.7769
 1036SOL     OW 3234   2.674   3.666   1.158  0.2174  0.1844  0.4565
 1036SOL    HW1 3235   2.764   3.631   1.159 -0.4371 -1.6539 -0.1260
 1036SOL    HW2 3236   2.648   3.670   1.250  0.2446 -1.1539  0.5415
 1037SOL     OW 3237   1.120   3.095   3.670  0.0345  0.0540 -0.1340
 1037SOL    HW1 3238   1.184   3.072   3.603  0.9732  0.5376  0.5574
 1037SOL    HW2 3239   1.118   3.191   3.668 -1.5291  0.0306 -0.9058
 1038SOL     OW 3240   1.558   3.102   3.275 -0.3885  0.0539 -0.0182
 1038SOL    HW1 3241   1.469   3.070   3.291  0.2521 -0.6880  2.4007
 1038SOL    HW2 3242   1.547   3.197   3.269 -1.1618  0.1558  2.1426
 1039SOL     OW 3243   2.297   2.309   2.949 -0.4911  0.0351  0.6157
 1039SOL    HW1 3244   2.391   2.290   2.956 -0.5472  0.0260  1.4761
 1039SOL    HW2 3245   2.265   2.248   2.882 -0.0642 -0.6507  1.0240
 1040SOL     OW 3246   2.771   1.386   3.497 -0.1197 -0.3192 -0.2574
 1040SOL    HW1 3247   2.782   1.292   3.506 -0.3795 -0.3437 -0.1925
 1040SOL    HW2 3248   2.686   1.405   3.537  0.0105 -0.0323 -0.1065
 1041SOL     OW 3249   3.420   0.676   3.166 -0.0175 -0.3773 -0.7636
 1041SOL    HW1 3250   3.464   0.689   3.250  0.1767  0.9300 -1.0414
 1041SOL    HW2 3251   3.488   0.692   3.100  0.0328 -2.1906 -1.1829
 1042SOL     OW 3252   3.497   2.468   1.879 -0.1802 -0.2154  0.2013
 1042SOL    HW1 3253   3.493   2.399   1.944 -2.6680  1.2062  1.7160
 1042SOL    HW2 3254   3.500   2.549   1.929 -1.6569  0.9244 -1.4067
 1043SOL     OW 3255   0.387   3.066   0.611 -0.1944  0.3875 -0.3780
 1043SOL    HW1 3256   0.482   3.054   0.606  0.2117  1.6807  2.3116
 1043SOL    HW2 3257   0.365   3.121   0.536  1.3584  0.8544 -0.5204
 1044SOL     OW 3258   0.889   2.077   0.379 -0.0825 -0.0214 -0.1094
 1044SOL    HW1 3259   0.794   2.060   0.383  0.0585 -0.8775 -0.1154
 1044SOL    HW2 3260   0.921   2.016   0.312  0.7778 -1.2961  1.4047
 1045SOL     OW 3261   2.597   1.406   1.055  0.7557 -0.0749  0.1414
 1045SOL    HW1 3262   2.693   1.406   1.061  0.8462 -0.3128 -1.0392
 1045SOL    HW2 3263   2.575   1.314   1.037  0.4659  0.2773 -1.4597
 1046SOL     OW 3264   0.315   2.403   0.618  0.1620  1.0236 -0.5109
 1046SOL    HW1 3265   0.368   2.482   0.611  0.6985  0.7008 -0.1593
 1046SOL    HW2 3266   0.327   2.359   0.534  3.1903 -0.7253  0.6793
 1047SOL     OW 3267   2.169   1.148   1.289 -0.4556  0.5410  0.9725
 1047SOL    HW1 3268   2.133   1.084   1.351  0.4710 -1.5523 -0.5508
 1047SOL    HW2 3269   2.260   1.123   1.280 -0.3918  1.2839 -0.6591
 1048SOL     OW 3270   0.367   2.465   1.392  0.6665  0.5302  0.6053
 1048SOL    HW1 3271   0.375   2.543   1.337  0.1512  0.6797  0.7400
 1048SOL    HW2 3272   0.408   2.490   1.475 -1.7371  1.5859  1.5935
 1049SOL     OW 3273   1.477   0.906   0.940  0.3251  0.0106  0.2594
 1049SOL    HW1 3274   1.413   0.904   1.010  1.1800  0.3866  1.0735
 1049SOL    HW2 3275   1.541   0.839   0.963  2.1921  2.0666  1.4361
 1050SOL     OW 3276   0.535   3.041   3.454  0.7297  0.0168  0.3791
 1050SOL    HW1 3277   0.607   2.990   3.419 -0.3389 -1.5046  0.3279
 1050SOL    HW2 3278   0.513   2.998   3.537 -0.2240  0.3547  0.3118
 1051SOL     OW 3279   1.555   3.120   2.325  0.7894  0.2919  0.3648
 1051SOL    HW1 3280   1.626   3.174   2.357  1.4499  0.0928 -0.6985
 1051SOL    HW2 3281   1.528   3.162   2.243  1.3857 -0.9909 -0.5391
 1052SOL     OW 3282   0.146   1.271   0.149  0.3796 -0.2890 -0.5985
 1052SOL    HW1 3283   0.159   1.359   0.184 -0.8799 -0.2268 -0.2364
 1052SOL    HW2 3284   0.053   1.255   0.159 -0.0515 -0.3619 -3.8164
 1053SOL     OW 3285   1.947   3.455   0.925  0.5482  0.5930 -0.2116
 1053SOL    HW1 3286   2.031   3.461   0.970  0.3789  0.3667  0.1436
 1053SOL    HW2 3287   1.906   3.541   0.939  0.8698  0.8283 -0.6941
 1054SOL     OW 3288   1.092   0.521   3.156 -0.0588 -0.0375 -0.7949
 1054SOL    HW1 3289   1.127   0.565   3.078  1.4995 -0.2450 -0.2530
 1054SOL    HW2 3290   1.017   0.575   3.182 -0.8431 -0.1650 -2.6115
 1055SOL     OW 3291   0.486   3.166   1.947 -0.1261  0.7945  0.4224
 1055SOL    HW1 3292   0.568   3.123   1.969  0.5626  0.3804 -2.5736
 1055SOL    HW2 3293   0.464   3.218   2.025  1.6659 -0.9627  2.1878
 1056SOL     OW 3294   1.663   1.334   2.815 -0.0248  0.4296  0.2098
 1056SOL    HW1 3295   1.670   1.307   2.723 -0.1713  2.2059 -0.3811
 1056SOL    HW2 3296   1.738   1.393   2.828  1.2247 -1.4118  1.9013
 1057SOL     OW 3297   2.994   2.544   2.291 -0.4834  0.5034 -0.5665
 1057SOL    HW1 3298   2.982   2.618   2.230 -2.3965 -0.1312 -1.0265
 1057SOL    HW2 3299   3.020   2.471   2.235 -0.0385  0.4674 -0.3125
 1058SOL     OW 3300   0.603   0.825   2.683  0.0481  0.6961  0.1105
 1058SOL    HW1 3301   0.692   0.853   2.662  0.4963 -0.8869 -0.2336
 1058SOL    HW2 3302   0.576   0.881   2.755  2.4095 -0.6409  2.1968
 1059SOL     OW 3303   0.830   1.012   2.373 -0.2554  0.4397  0.3829
 1059SOL    HW1 3304   0.856   0.982   2.460  0.2412  0.6496  0.3124
 1059SOL    HW2 3305   0.758   1.073   2.388 -0.7034 -0.1340  0.5866
 1060SOL     OW 3306   2.482   1.955   1.034  0.2072  0.3311  0.2671
 1060SOL    HW1 3307   2.498   2.039   1.077 -2.5400  1.3368 -0.4742
 1060SOL    HW2 3308   2.387   1.951   1.023  0.5217 -1.0751 -3.2664
 1061SOL     OW 3309   2.257   0.896   2.104  0.5175  0.2216 -0.1390
 1061SOL    HW1 3310   2.353   0.891   2.107  0.4497 -1.6722 -0.2216
 1061SOL    HW2 3311   2.228   0.827   2.163 -0.8290  1.7343  1.0294
 1062SOL     OW 3312   0.364   3.188   3.300  0.1488 -0.3972  0.3780
 1062SOL    HW1 3313   0.406   3.119   3.352  2.1177  0.2591 -0.2306
 1062SOL    HW2 3314   0.331   3.250   3.365 -1.4371 -1.7349  0.9256
 1063SOL     OW 3315   2.737   2.420   3.362 -0.3489 -0.0026  0.1683
 1063SOL    HW1 3316   2.785   2.396   3.441 -2.2439 -0.6148  1.1913
 1063SOL    HW2 3317   2.734   2.339   3.311 -1.3897 -0.3341  0.7269
 1064SOL     OW 3318   0.755   3.017   1.390 -0.5466  0.7702 -0.0056
 1064SOL    HW1 3319   0.697   2.953   1.348 -1.3581  0.7293  1.1229
 1064SOL    HW2 3320   0.797   2.967   1.461 -0.1423  1.1410  0.0158
 1065SOL     OW 3321   0.702   0.438   2.004  0.3418  0.8030 -0.7512
 1065SOL    HW1 3322   0.679   0.497   2.076 -0.0989 -0.1509 -0.0976
 1065SOL    HW2 3323   0.770   0.486   1.956  0.7127  1.4324  0.3400
 1066SOL     OW 3324   0.287   1.600   0.072 -0.0209  0.3345 -0.0773
 1066SOL    HW1 3325   0.271   1.574  -0.019 -0.9026  1.9597 -0.4357
 1066SOL    HW2 3326   0.201   1.590   0.115  0.3138 -0.1053  0.5023
 1067SOL     OW 3327   0.422   1.180   1.814 -0.2908  0.1729  0.0553
 1067SOL    HW1 3328   0.506   1.225   1.825 -0.1520  0.3413 -1.4339
 1067SOL    HW2 3329   0.397   1.199   1.724 -2.1477  0.4660  0.5934
 1068SOL     OW 3330   0.549   0.148   2.038  0.2583 -0.2820 -0.3686
 1068SOL    HW1 3331   0.552   0.244   2.034  0.3998 -0.2946 -0.5305
 1068SOL    HW2 3332   0.586   0.127   2.124 -0.7523 -0.1378  0.1221
 1069SOL     OW 3333   2.378   0.660   2.961  0.0915 -0.0117 -0.2994
 1069SOL    HW1 3334   2.331   0.589   2.918 -0.3899  0.1166  0.0086
 1069SOL    HW2 3335   2.314   0.731   2.968  1.0287  1.1296 -2.2227
 1070SOL     OW 3336   1.966   0.401   0.058 -0.1414  0.0965  0.1593
 1070SOL    HW1 3337   1.993   0.356   0.138  1.8947  0.6286 -0.1919
 1070SOL    HW2 3338   1.983   0.493   0.074 -0.2151  0.2746 -0.6998
 1071SOL     OW 3339   1.456   2.163   1.997 -0.1570  0.1709 -0.6475
 1071SOL    HW1 3340   1.506   2.209   1.929  0.0593 -0.5622 -0.9884
 1071SOL    HW2 3341   1.384   2.223   2.017 -0.3554  0.3147 -1.6891
 1072SOL     OW 3342   1.938   2.542   0.156  0.6886 -0.1381 -0.0119
 1072SOL    HW1 3343   1.874   2.547   0.085 -0.0545  1.8103  0.7136
 1072SOL    HW2 3344   1.889   2.507   0.230  0.1932  1.9516  0.7285
 1073SOL     OW 3345   3.138   2.962   2.371 -0.4107  0.1374 -0.0956
 1073SOL    HW1 3346   3.229   2.977   2.394  0.2290 -1.5058 -1.3409
 1073SOL    HW2 3347   3.128   3.000   2.284 -0.9586  0.4186  0.0852
 1074SOL     OW 3348   2.483   2.953   1.205  0.1823  0.4715 -0.2369
 1074SOL    HW1 3349   2.556   3.012   1.223 -0.2208  0.8512  0.1935
 1074SOL    HW2 3350   2.499   2.921   1.117 -0.0070  1.8338 -0.7893
 1075SOL     OW 3351   0.076   1.514   3.123 -0.0341 -0.3303 -0.0091
 1075SOL    HW1 3352  -0.002   1.474   3.160 -1.3854 -0.0396 -2.3546
 1075SOL    HW2 3353   0.149   1.471   3.168 -1.4147  1.3432  4.2758
 1076SOL     OW 3354   2.815   0.274   0.253  0.2471 -0.8312  0.2741
 1076SOL    HW1 3355   2.795   0.346   0.192 -0.2072  0.0887  1.4600
 1076SOL    HW2 3356   2.909   0.260   0.244  0.1350 -0.9648 -0.8886
 1077SOL     OW 3357   2.931   0.992   2.878 -0.2303  0.9229  0.0178
 1077SOL    HW1 3358   2.874   0.945   2.939  0.6086  0.5214  0.5076
 1077SOL    HW2 3359   2.938   0.934   2.802  0.4198  0.4653  0.4230
 1078SOL     OW 3360   1.247   3.506   0.819  0.2055  0.5051 -0.7518
 1078SOL    HW1 3361   1.272   3.543   0.904  1.4307 -1.8131 -0.0015
 1078SOL    HW2 3362   1.181   3.440   0.840 -0.0176  0.4143 -1.7064
 1079SOL     OW 3363   3.606   3.123   3.061 -0.3438 -0.1190 -0.0532
 1079SOL    HW1 3364   3.697   3.126   3.089 -0.1104  0.7771 -0.8697
 1079SOL    HW2 3365   3.556   3.123   3.142  0.3556  0.7035  0.3908
 1080SOL     OW 3366   2.284   3.339   1.202 -0.4078 -0.6323  0.1774
 1080SOL    HW1 3367   2.239   3.330   1.287  0.0365  0.7768  0.5830
 1080SOL    HW2 3368   2.220   3.307   1.138 -0.2260 -3.1038  1.1220
 1081SOL     OW 3369   0.079   1.301   1.817 -0.0401 -0.1884  0.5299
 1081SOL    HW1 3370   0.076   1.248   1.738  1.5136  1.3328 -0.6096
 1081SOL    HW2 3371  -0.003   1.351   1.815 -1.4214 -2.2675  1.5120
 1082SOL     OW 3372   0.236   1.488   1.141 -0.0375  0.3017  0.0128
 1082SOL    HW1 3373   0.152   1.530   1.158 -0.3768 -0.7274  0.9844
 1082SOL    HW2 3374   0.255   1.437   1.220  1.4706  0.4560 -0.2086
 1083SOL     OW 3375   1.494   1.357   1.816 -0.6998 -0.8063 -0.7713
 1083SOL    HW1 3376   1.538   1.272   1.808 -1.5699 -1.3800  0.2559
 1083SOL    HW2 3377   1.405   1.336   1.845  0.0372  0.5117  3.1411
 1084SOL     OW 3378   1.179   3.132   1.878  0.7226 -0.0010 -0.0214
 1084SOL    HW1 3379   1.120   3.169   1.813  0.3126  0.9990  0.8949
 1084SOL    HW2 3380   1.214   3.208   1.925  1.4962 -0.6678  0.5054
 1085SOL     OW 3381   2.520   2.762   3.635 -0.4275 -0.0538 -0.6162
 1085SOL    HW1 3382   2.533   2.699   3.564  0.1269  0.6139 -1.1196
 1085SOL    HW2 3383   2.556   2.719   3.712 -1.7263 -1.1063 -0.5557
 1086SOL     OW 3384   1.009   3.143   3.402  0.3011  0.5597  0.4216
 1086SOL    HW1 3385   1.007   3.179   3.314  0.5515 -0.7547 -0.1494
 1086SOL    HW2 3386   1.058   3.061   3.394 -0.7248 -0.2162  1.5157
 1087SOL     OW 3387   1.204   0.110   2.754 -0.1981 -0.6507 -0.1268
 1087SOL    HW1 3388   1.216   0.054   2.678  2.3516  0.3086 -0.5262
 1087SOL    HW2 3389   1.243   0.062   2.826  1.0524  0.1058 -0.2676
 1088SOL     OW 3390   1.398   3.153   0.666 -0.1679 -0.7663  0.0464
 1088SOL    HW1 3391   1.469   3.156   0.602 -0.2146 -2.1090 -0.0951
 1088SOL    HW2 3392   1.325   3.113   0.620 -0.6777 -0.4124  0.5205
 1089SOL     OW 3393   0.931   3.525   2.102 -0.1823  0.3638 -0.5094
 1089SOL    HW1 3394   0.928   3.429   2.095  1.3684  0.3245 -0.9511
 1089SOL    HW2 3395   0.944   3.541   2.196  0.2280  0.1134 -0.5201
 1090SOL     OW 3396   0.670   0.135   2.308  0.0310 -0.5642  1.1110
 1090SOL    HW1 3397   0.710   0.221   2.316 -1.1028  0.1346 -0.3469
 1090SOL    HW2 3398   0.744   0.074   2.301  0.8773  0.5994 -0.6473
 1091SOL     OW 3399   3.519   2.491   2.329  0.7418  0.0928  0.1146
 1091SOL    HW1 3400   3.563   2.425   2.382 -1.1526 -0.0740  1.5594
 1091SOL    HW2 3401   3.544   2.575   2.369  1.6807  0.1753 -0.6014
 1092SOL     OW 3402   2.808   1.978   0.256  1.0568  0.3111 -0.0904
 1092SOL    HW1 3403   2.854   2.045   0.205  0.7068 -0.9706 -2.1942
 1092SOL    HW2 3404   2.877   1.930   0.301  1.4979  0.4998 -0.5600
 1093SOL     OW 3405   3.383   2.864   0.960  0.6630 -0.5591  0.3510
 1093SOL    HW1 3406   3.341   2.822   1.035 -0.4855 -2.8281 -1.4485
 1093SOL    HW2 3407   3.324   2.936   0.937 -0.2603 -1.3523  0.1831
 1094SOL     OW 3408   0.622   1.945   0.320 -0.4707  0.5213  0.4257
 1094SOL    HW1 3409   0.602   1.943   0.413 -0.8075  0.7187  0.3574
 1094SOL    HW2 3410   0.547   1.988   0.280 -0.9393 -0.7252 -0.0848
 1095SOL     OW 3411   1.293   3.044   2.458 -0.7632  0.1241  0.0013
 1095SOL    HW1 3412   1.356   3.051   2.530  0.1759 -2.1005 -0.5186
 1095SOL    HW2 3413   1.336   3.087   2.384 -0.8068  0.5112  0.1962
 1096SOL     OW 3414   0.857   0.650   2.351  0.2123  0.3526 -0.8735
 1096SOL    HW1 3415   0.918   0.694   2.292  0.4173 -0.3181 -1.1693
 1096SOL    HW2 3416   0.906   0.640   2.433  0.2131  0.5459 -0.8499
 1097SOL     OW 3417   1.049   1.806   1.439 -1.3403 -0.4958 -0.0177
 1097SOL    HW1 3418   0.976   1.869   1.435 -1.0467 -0.1293  0.2372
 1097SOL    HW2 3419   1.095   1.817   1.356 -0.9073  0.1086  0.2898
 1098SOL     OW 3420   0.379   0.846   2.208 -0.3652  0.1536  0.5395
 1098SOL    HW1 3421   0.393   0.913   2.275  1.2440  0.7183 -0.2923
 1098SOL    HW2 3422   0.449   0.782   2.223 -0.5768 -0.2116  0.0005
 1099SOL     OW 3423   3.286   0.283   1.227  0.3351 -0.3615  0.1986
 1099SOL    HW1 3424   3.376   0.304   1.204  0.1331  1.0975  0.6700
 1099SOL    HW2 3425   3.257   0.356   1.281 -0.2924 -2.0140  2.2625
 1100SOL     OW 3426   2.805   1.473   2.727 -0.2714  0.5795 -0.0106
 1100SOL    HW1 3427   2.872   1.491   2.662  0.9716  0.9362  1.3062
 1100SOL    HW2 3428   2.823   1.384   2.757 -0.8661  0.3943 -0.1974
 1101SOL     OW 3429   3.338   1.797   1.813  0.8352 -0.2903  0.1769
 1101SOL    HW1 3430   3.272   1.729   1.800 -0.0462  0.7443 -1.0721
 1101SOL    HW2 3431   3.402   1.758   1.871  0.5862 -2.3270 -0.8404
 1102SOL     OW 3432   3.334   1.751   3.511 -0.2486  0.6038  0.3488
 1102SOL    HW1 3433   3.314   1.704   3.592 -1.1409  0.2031 -0.0911
 1102SOL    HW2 3434   3.251   1.794   3.488  0.4889  2.2250  0.6274
 1103SOL     OW 3435   2.695   1.983   3.412  0.1474  0.0342 -0.6708
 1103SOL    HW1 3436   2.659   2.036   3.482  0.2233  0.7832 -1.1936
 1103SOL    HW2 3437   2.650   1.899   3.419 -0.5007  0.4160 -0.2992
 1104SOL     OW 3438   1.254   1.598   3.462  0.0982 -0.5785 -0.0106
 1104SOL    HW1 3439   1.334   1.546   3.455  0.4066 -0.2701  1.0866
 1104SOL    HW2 3440   1.284   1.683   3.492 -0.6471 -0.4527  0.3812
 1105SOL     OW 3441   1.558   0.612   1.292  0.1369 -0.2475  0.3187
 1105SOL    HW1 3442   1.485   0.581   1.346  0.2697 -0.7871  0.1931
 1105SOL    HW2 3443   1.636   0.579   1.337  0.2655 -0.3854 -0.0078
 1106SOL     OW 3444   1.280   3.393   2.003  0.4718 -0.6590 -0.3476
 1106SOL    HW1 3445   1.213   3.433   1.947 -0.8351 -2.4443 -0.1784
 1106SOL    HW2 3446   1.357   3.447   1.991 -1.4443  2.6198  0.8364
 1107SOL     OW 3447   2.530   2.592   3.125 -0.8762  0.1636 -0.2194
 1107SOL    HW1 3448   2.486   2.512   3.096 -0.5492 -0.1343  0.1006
 1107SOL    HW2 3449   2.459   2.650   3.152 -1.0454 -0.7157  1.3243
 1108SOL     OW 3450   2.681   0.304   3.002  0.7188 -0.1175 -0.7311
 1108SOL    HW1 3451   2.733   0.243   3.054  0.2960 -0.5235 -0.7787
 1108SOL    HW2 3452   2.730   0.315   2.921  1.7477  1.0732  0.0121
 1109SOL     OW 3453   2.223   1.970   1.409  0.2336 -0.2334 -0.2271
 1109SOL    HW1 3454   2.148   1.947   1.354  0.0492 -0.0285 -0.0584
 1109SOL    HW2 3455   2.192   1.959   1.498  0.2506  0.3325 -0.1487
 1110SOL     OW 3456   1.572   0.435   2.539  0.2248  0.2522  0.2988
 1110SOL    HW1 3457   1.540   0.345   2.547 -0.4181  0.5429  1.1693
 1110SOL    HW2 3458   1.553   0.475   2.624  1.7006  0.8404  0.3826
 1111SOL     OW 3459   1.318   2.879   0.055 -0.4636 -0.1497 -0.1171
 1111SOL    HW1 3460   1.400   2.909   0.016 -0.4020  0.2266  0.2836
 1111SOL    HW2 3461   1.252   2.894  -0.012 -0.1777 -0.6247 -0.5090
 1112SOL     OW 3462   3.117   0.815   2.698  0.2562  0.5803 -0.2287
 1112SOL    HW1 3463   3.071   0.851   2.623  1.3500  0.4717 -0.9867
 1112SOL    HW2 3464   3.064   0.741   2.726  0.1600  0.2184 -1.3167
 1113SOL     OW 3465   1.300   2.256   1.623 -0.7557 -0.4512  0.6674
 1113SOL    HW1 3466   1.380   2.211   1.649 -0.7702 -1.8813 -1.5106
 1113SOL    HW2 3467   1.232   2.188   1.626 -1.1946 -0.1036 -0.7519
 1114SOL     OW 3468   1.328   1.003   2.038  0.0299  0.0543  0.4834
 1114SOL    HW1 3469   1.370   1.045   2.113 -1.8135 -0.8904  2.1069
 1114SOL    HW2 3470   1.296   1.077   1.985  1.3841  0.7274  0.5544
 1115SOL     OW 3471   3.090   1.613   3.166  0.8129  0.0281 -0.1016
 1115SOL    HW1 3472   3.179   1.644   3.186  0.8224 -0.5994  0.9406
 1115SOL    HW2 3473   3.034   1.689   3.182  1.1311  0.3346 -0.4361
 1116SOL     OW 3474   2.221   1.179   2.051 -0.1527 -0.5986 -0.6548
 1116SOL    HW1 3475   2.133   1.210   2.030  0.4878  0.8637 -1.3747
 1116SOL    HW2 3476   2.219   1.085   2.032 -1.3460 -0.4413 -1.3897
 1117SOL     OW 3477   3.277   1.381   2.791 -0.5851  0.1448  0.4016
 1117SOL    HW1 3478   3.209   1.318   2.768  1.5724 -2.2257  0.0159
 1117SOL    HW2 3479   3.230   1.453   2.832 -3.4715 -0.4388 -1.6166
 1118SOL     OW 3480   1.297   3.616   2.237  0.3732  0.1261  0.5576
 1118SOL    HW1 3481   1.282   3.666   2.157 -0.1758 -1.6195 -0.4809
 1118SOL    HW2 3482   1.317   3.528   2.207 -1.7613 -1.0867  2.3370
 1119SOL     OW 3483   0.316   3.700   1.225 -0.2979  0.2717 -0.7185
 1119SOL    HW1 3484   0.342   3.774   1.279  0.6788  0.2022 -1.0854
 1119SOL    HW2 3485   0.354   3.624   1.268 -0.4728  0.0875 -0.8887
 1120SOL     OW 3486   1.298   2.383   2.071 -0.3008 -0.4342 -0.1795
 1120SOL    HW1 3487   1.226   2.402   2.011  0.4496  1.7085 -0.4800
 1120SOL    HW2 3488   1.325   2.468   2.104  1.5564 -1.2652  0.5719
 1121SOL     OW 3489   2.274   2.706   1.593 -0.6420 -0.0462 -0.0154
 1121SOL    HW1 3490   2.306   2.622   1.627 -0.3766 -0.2839 -0.8383
 1121SOL    HW2 3491   2.255   2.690   1.501 -2.3127  0.3382  0.2268
 1122SOL     OW 3492   2.867   2.935   0.885  0.1694 -0.3312 -0.1738
 1122SOL    HW1 3493   2.949   2.887   0.897 -0.4041 -1.1089  0.7116
 1122SOL    HW2 3494   2.853   2.935   0.790  0.2140 -1.8754 -0.2000
 1123SOL     OW 3495   3.000   0.969   1.160 -0.0171 -0.5907  0.5820
 1123SOL    HW1 3496   3.073   1.001   1.213  0.4475 -2.4743  1.1224
 1123SOL    HW2 3497   2.922   0.988   1.212 -0.0153  1.7449 -0.1467
 1124SOL     OW 3498   1.186   2.827   1.762 -0.0605  0.3558  0.2984
 1124SOL    HW1 3499   1.127   2.782   1.702 -0.7614  1.4747  0.1181
 1124SOL    HW2 3500   1.264   2.773   1.764 -0.1906  0.0645 -1.2763
 1125SOL     OW 3501   0.876   1.751   1.124 -0.5186 -0.3151 -0.7112
 1125SOL    HW1 3502   0.838   1.827   1.168  0.7670 -0.1987  0.2576
 1125SOL    HW2 3503   0.825   1.742   1.044 -0.9704  1.3281 -0.6520
 1126SOL     OW 3504   1.800   1.977   1.587 -0.5024  0.3710 -0.5087
 1126SOL    HW1 3505   1.759   1.895   1.612  1.0279 -0.6059 -1.0432
 1126SOL    HW2 3506   1.894   1.958   1.586  0.1355  2.7693  1.7183
 1127SOL     OW 3507   0.382   2.207   1.378 -0.1687 -0.1762  0.5562
 1127SOL    HW1 3508   0.381   2.303   1.372 -0.9004 -0.2585 -1.3607
 1127SOL    HW2 3509   0.328   2.187   1.454  0.7859  0.9392  1.5638
 1128SOL     OW 3510   0.212   2.809   2.519 -0.8144  0.0893  0.1554
 1128SOL    HW1 3511   0.251   2.891   2.549  0.0037 -0.3544  0.3160
 1128SOL    HW2 3512   0.177   2.768   2.598 -1.9697  0.6592 -0.0369
 1129SOL     OW 3513   2.297   0.456   0.145 -0.3527  0.6817  0.4666
 1129SOL    HW1 3514   2.226   0.396   0.169  0.7892 -0.0801  2.1083
 1129SOL    HW2 3515   2.276   0.538   0.190 -0.0005  0.3176  1.3242
 1130SOL     OW 3516   2.161   3.513   3.302 -0.2644 -0.0954 -0.1767
 1130SOL    HW1 3517   2.142   3.606   3.308 -1.8103 -0.4260  0.9542
 1130SOL    HW2 3518   2.103   3.481   3.233 -0.0647 -0.2894 -0.2547
 1131SOL     OW 3519   1.345   0.244   1.628 -0.4006  0.1182 -0.4210
 1131SOL    HW1 3520   1.255   0.214   1.619  0.1169 -1.4858 -0.5368
 1131SOL    HW2 3521   1.337   0.334   1.660 -2.0712  1.2575 -3.6239
 1132SOL     OW 3522   1.837   0.806   2.277 -0.7958  0.0336 -1.1123
 1132SOL    HW1 3523   1.834   0.741   2.207 -1.2784 -0.1275 -0.9404
 1132SOL    HW2 3524   1.839   0.755   2.358  5.0851 -0.1113 -0.9224
 1133SOL     OW 3525   0.442   0.411   0.918 -0.7011 -0.1658  0.0364
 1133SOL    HW1 3526   0.522   0.390   0.870 -1.1360  0.4111 -0.9744
 1133SOL    HW2 3527   0.407   0.327   0.946  0.1190 -0.4381  0.2696
 1134SOL     OW 3528   1.913   2.950   1.046 -0.1532  0.7378 -0.1290
 1134SOL    HW1 3529   1.985   2.924   0.989 -1.8805  0.4902 -2.3202
 1134SOL    HW2 3530   1.855   2.875   1.048 -1.5276  1.7496 -0.4078
 1135SOL     OW 3531   0.685   2.346   2.906 -0.2904 -0.1168 -0.0127
 1135SOL    HW1 3532   0.771   2.304   2.905  0.1105  0.6571 -0.7070
 1135SOL    HW2 3533   0.682   2.393   2.989 -0.7309 -1.4540  0.7510
 1136SOL     OW 3534   2.208   1.442   3.281 -0.4155  0.1326 -0.4664
 1136SOL    HW1 3535   2.198   1.355   3.319  0.4680  0.1487 -0.1957
 1136SOL    HW2 3536   2.205   1.501   3.356 -3.4659  0.5944 -0.7911
 1137SOL     OW 3537   3.021   0.576   2.831 -0.7738  0.2600 -0.2338
 1137SOL    HW1 3538   3.079   0.614   2.897 -0.4038 -1.1392  0.2915
 1137SOL    HW2 3539   3.059   0.490   2.813  0.5443  1.4497 -4.0798
 1138SOL     OW 3540   1.882   0.591   1.837  0.2431  0.2428 -0.7054
 1138SOL    HW1 3541   1.909   0.506   1.803 -0.9005  0.8091 -3.2913
 1138SOL    HW2 3542   1.859   0.575   1.928  0.9350 -1.9960 -0.8694
 1139SOL     OW 3543   1.180   1.182   0.213 -0.6003 -0.4145 -0.1512
 1139SOL    HW1 3544   1.204   1.275   0.215  1.4320 -0.8958 -0.7623
 1139SOL    HW2 3545   1.262   1.135   0.228 -1.7925 -2.1368  1.5374
 1140SOL     OW 3546   0.533   1.925   1.248 -0.0901 -0.3068 -0.5250
 1140SOL    HW1 3547   0.439   1.937   1.262  0.1806  1.6732 -0.1931
 1140SOL    HW2 3548   0.555   1.849   1.302 -1.4488 -0.6543 -0.4295
 1141SOL     OW 3549   1.707   1.035   3.460  0.6835 -0.3484  0.1070
 1141SOL    HW1 3550   1.735   1.017   3.371  0.6347 -0.7387  0.1657
 1141SOL    HW2 3551   1.613   1.052   3.453  0.1295 -2.8515  0.3667
 1142SOL     OW 3552   1.252   3.444   0.426 -0.3319 -0.8030 -0.1900
 1142SOL    HW1 3553   1.319   3.476   0.486 -0.5742 -0.7616  0.0597
 1142SOL    HW2 3554   1.202   3.380   0.477  0.1434 -1.5857 -0.6793
 1143SOL     OW 3555   2.189   0.081   2.635  0.2517  0.2772 -0.3313
 1143SOL    HW1 3556   2.198   0.096   2.541  0.5601  1.0489 -0.1843
 1143SOL    HW2 3557   2.126   0.009   2.642  0.4164  0.0507 -1.1333
 1144SOL     OW 3558   0.554   0.808   0.515  0.4335 -0.2959 -0.2544
 1144SOL    HW1 3559   0.559   0.877   0.581 -1.3503 -0.8202  0.4788
 1144SOL    HW2 3560   0.596   0.846   0.438  0.3987  1.2262  0.4459
 1145SOL     OW 3561   3.334   1.236   1.992  0.1264  0.3309  0.1815
 1145SOL    HW1 3562   3.371   1.166   2.045  3.5039  2.3155  0.6727
 1145SOL    HW2 3563   3.245   1.206   1.972 -0.2216 -1.9585  4.1903
 1146SOL     OW 3564   3.524   2.795   1.544 -0.3617  0.2472 -0.0705
 1146SOL    HW1 3565   3.595   2.845   1.584 -0.7999  1.0264 -0.2574
 1146SOL    HW2 3566   3.547   2.703   1.562 -0.9842  0.5556  2.7616
 1147SOL     OW 3567   0.905   2.136   3.417 -0.3839  0.2565 -0.2638
 1147SOL    HW1 3568   0.919   2.229   3.437  1.3523  0.0519 -0.3582
 1147SOL    HW2 3569   0.992   2.104   3.392 -0.9563 -1.4064 -0.2225
 1148SOL     OW 3570   1.791   0.770   3.607  0.1076 -0.3951 -0.0686
 1148SOL    HW1 3571   1.742   0.817   3.540  0.3299 -0.9915 -0.6566
 1148SOL    HW2 3572   1.734   0.698   3.634 -0.3830  0.3834  1.0929
 1149SOL     OW 3573   1.886   3.544   3.111 -0.6465 -0.4665  0.0914
 1149SOL    HW1 3574   1.934   3.490   3.048 -0.1537  1.7561 -1.5707
 1149SOL    HW2 3575   1.827   3.597   3.058  1.6138  3.4088  1.0306
 1150SOL     OW 3576   2.131   2.046   0.863 -0.9016  0.2475 -0.1901
 1150SOL    HW1 3577   2.054   2.023   0.812 -1.7033  2.1204  0.0647
 1150SOL    HW2 3578   2.155   2.134   0.832  0.4891  0.1271  0.4713
 1151SOL     OW 3579   0.290   3.428   0.867  0.2114  0.4559 -0.2912
 1151SOL    HW1 3580   0.296   3.333   0.857  1.5321  0.4697  0.2051
 1151SOL    HW2 3581   0.372   3.453   0.909 -0.3717  1.7515  0.1298
 1152SOL     OW 3582   1.645   1.241   2.557 -0.0976 -0.4204 -0.1122
 1152SOL    HW1 3583   1.664   1.268   2.467  0.1194  0.2305  0.1223
 1152SOL    HW2 3584   1.607   1.154   2.548 -1.6702  0.3121 -0.9651
 1153SOL     OW 3585   0.948   1.820   2.643 -0.3728  0.1368 -0.2916
 1153SOL    HW1 3586   0.902   1.811   2.559  2.2639  1.2507 -1.9741
 1153SOL    HW2 3587   0.979   1.910   2.645 -1.9472  0.7631  2.8730
 1154SOL     OW 3588   2.194   1.198   3.381  0.1973 -0.5633  0.1954
 1154SOL    HW1 3589   2.107   1.221   3.413  0.7412  2.2883 -0.1438
 1154SOL    HW2 3590   2.235   1.152   3.454 -0.0872  1.9690  2.0783
 1155SOL     OW 3591   0.774   1.347   3.355 -0.1874 -0.7345  0.1689
 1155SOL    HW1 3592   0.696   1.381   3.398 -0.3016 -0.8136  0.0238
 1155SOL    HW2 3593   0.847   1.377   3.410 -0.2676 -0.0488 -0.0892
 1156SOL     OW 3594   2.635   1.896   2.235  0.2865  0.1917  0.9220
 1156SOL    HW1 3595   2.661   1.981   2.198 -1.6031  0.5774  0.3974
 1156SOL    HW2 3596   2.577   1.918   2.308 -4.1271 -0.4683 -1.9861
 1157SOL     OW 3597   0.588   2.594   0.240  0.0979 -0.3182  0.2118
 1157SOL    HW1 3598   0.612   2.684   0.219  2.4140 -1.1475 -0.9931
 1157SOL    HW2 3599   0.496   2.587   0.212  0.0920  1.4530 -0.3474
 1158SOL     OW 3600   3.203   1.922   1.999  0.2802 -0.5535 -0.0683
 1158SOL    HW1 3601   3.121   1.887   1.964  0.4769  1.6580 -3.1284
 1158SOL    HW2 3602   3.271   1.889   1.940  0.9264  1.5522 -0.6037
 1159SOL     OW 3603   2.169   2.202   2.687 -0.1322 -0.1643  0.5165
 1159SOL    HW1 3604   2.186   2.286   2.644 -0.5208 -0.2270  0.2404
 1159SOL    HW2 3605   2.094   2.165   2.640  1.7969 -2.0253 -1.3132
 1160SOL     OW 3606   1.951   1.239   1.968 -0.6404 -0.5565 -0.7764
 1160SOL    HW1 3607   1.980   1.228   1.878 -1.6065 -0.9463 -1.0505
 1160SOL    HW2 3608   1.991   1.322   1.996 -0.5550 -0.2952 -1.6418
 1161SOL     OW 3609   0.915   3.252   2.104  0.2920 -0.1367 -0.3477
 1161SOL    HW1 3610   0.944   3.168   2.068  2.2186  0.7780 -1.0251
 1161SOL    HW2 3611   0.910   3.236   2.199 -0.1080 -1.1909 -0.5233
 1162SOL     OW 3612   3.569   1.600   3.495  0.2605 -0.0615  0.1302
 1162SOL    HW1 3613   3.491   1.653   3.509 -0.9569 -1.8382  0.4220
 1162SOL    HW2 3614   3.551   1.551   3.415  0.7195 -1.0388  0.6006
 1163SOL     OW 3615   2.588   3.358   1.260 -0.4694 -0.0065 -0.3480
 1163SOL    HW1 3616   2.504   3.350   1.216 -0.5878 -0.3216 -0.0722
 1163SOL    HW2 3617   2.584   3.442   1.305 -0.9222 -0.3371  0.2445
 1164SOL     OW 3618   1.569   3.469   3.456  0.3551 -0.3702 -0.4405
 1164SOL    HW1 3619   1.571   3.551   3.406  1.4794 -1.6154 -2.5879
 1164SOL    HW2 3620   1.656   3.431   3.444 -0.5249 -2.4820 -0.5925
 1165SOL     OW 3621   2.097   1.191   3.659 -0.3741  0.1949  0.0553
 1165SOL    HW1 3622   2.122   1.224   3.745 -2.2402 -1.0942  1.1526
 1165SOL    HW2 3623   2.017   1.238   3.637 -0.3253 -0.0278 -0.6223
 1166SOL     OW 3624   2.245   3.147   0.574 -0.7142  0.2135  0.7372
 1166SOL    HW1 3625   2.322   3.193   0.608  1.3963 -2.3480 -0.1506
 1166SOL    HW2 3626   2.282   3.074   0.524 -3.7507 -0.0537 -1.3639
 1167SOL     OW 3627   0.634   2.189   0.974 -0.1299  0.2147  0.9275
 1167SOL    HW1 3628   0.626   2.172   0.880 -0.3087 -0.1887  1.0125
 1167SOL    HW2 3629   0.616   2.282   0.983  2.0182  0.7433  0.3089
 1168SOL     OW 3630   1.765   0.354   2.871 -0.4177 -0.3197  0.4659
 1168SOL    HW1 3631   1.849   0.399   2.865 -0.2410 -0.3548  2.2428
 1168SOL    HW2 3632   1.713   0.390   2.799  0.3217  1.4247  0.7592
 1169SOL     OW 3633   0.854   2.083   2.941 -0.0459 -0.3779 -0.0806
 1169SOL    HW1 3634   0.781   2.044   2.894 -0.4462 -0.6434  0.7391
 1169SOL    HW2 3635   0.896   2.009   2.986 -0.2797 -0.0113  0.7754
 1170SOL     OW 3636   1.057   2.434   1.944  0.5103 -0.2887  0.2879
 1170SOL    HW1 3637   1.052   2.362   1.881 -0.6650 -0.2626  0.3320
 1170SOL    HW2 3638   0.994   2.411   2.012 -0.8021  1.3453 -0.3027
 1171SOL     OW 3639   2.606   1.902   2.731 -0.0047 -0.2448  0.1563
 1171SOL    HW1 3640   2.678   1.965   2.735 -0.8566  0.9176 -1.5244
 1171SOL    HW2 3641   2.644   1.824   2.691  0.2914  0.5092 -1.1153
 1172SOL     OW 3642   0.908   1.142   3.269 -0.3762 -0.6273 -0.5068
 1172SOL    HW1 3643   0.854   1.207   3.315 -0.4999 -1.5434  0.6808
 1172SOL    HW2 3644   0.846   1.080   3.232 -0.2085 -0.6998 -0.6693
 1173SOL     OW 3645   0.055   3.158   0.179 -0.0163  0.5901 -0.8367
 1173SOL    HW1 3646   0.064   3.220   0.251 -1.5271  0.1848 -0.2701
 1173SOL    HW2 3647   0.075   3.210   0.100  0.3007  1.3808 -0.2496
 1174SOL     OW 3648   3.554   0.583   1.366  0.6627 -0.0041 -0.4721
 1174SOL    HW1 3649   3.637   0.542   1.387 -0.1361 -1.4581  0.0047
 1174SOL    HW2 3650   3.500   0.569   1.444 -0.8444 -1.3843 -1.6927
 1175SOL     OW 3651   1.005   2.268   3.129  0.0246  0.5112  0.4677
 1175SOL    HW1 3652   0.969   2.218   3.056 -2.1444  2.2362  0.2291
 1175SOL    HW2 3653   1.067   2.209   3.171 -0.5528 -1.4325 -1.2550
 1176SOL     OW 3654   0.169   1.673   3.417 -0.2173  0.1011  0.3671
 1176SOL    HW1 3655   0.204   1.619   3.346 -1.5939  0.0813 -0.3237
 1176SOL    HW2 3656   0.075   1.678   3.399 -0.5752  0.2172  2.1124
 1177SOL     OW 3657   0.144   0.132   2.674 -0.0823 -0.2977  0.6397
 1177SOL    HW1 3658   0.076   0.184   2.632 -0.5868 -1.7280 -0.3855
 1177SOL    HW2 3659   0.223   0.149   2.621 -0.1247 -0.1779  0.6148
 1178SOL     OW 3660   1.557   2.550   2.164  0.1551 -0.1833  0.1458
 1178SOL    HW1 3661   1.478   2.595   2.194  1.4004  2.0149  0.3836
 1178SOL    HW2 3662   1.561   2.569   2.071  0.4115 -0.2728  0.1385
 1179SOL     OW 3663   3.443   0.862   0.461 -0.1100  0.4481  0.4086
 1179SOL    HW1 3664   3.410   0.939   0.416 -0.6171 -0.3026 -0.5536
 1179SOL    HW2 3665   3.534   0.853   0.430 -0.7291 -0.5764 -1.2259
 1180SOL     OW 3666   2.662   3.502   2.558 -0.1078  0.0922  0.2076
 1180SOL    HW1 3667   2.713   3.523   2.480 -0.5111  0.6238  0.0839
 1180SOL    HW2 3668   2.680   3.574   2.619 -0.8237  0.3701  0.1047
 1181SOL     OW 3669   0.626   0.779   1.830 -0.2090  0.3592 -0.1565
 1181SOL    HW1 3670   0.637   0.848   1.764 -0.7937  0.7455  0.1454
 1181SOL    HW2 3671   0.532   0.777   1.847 -0.2572 -0.8240 -0.4872
 1182SOL     OW 3672   3.436   2.056   3.433  0.0886  0.2952  0.1466
 1182SOL    HW1 3673   3.359   2.017   3.391  0.6105  1.1877 -1.7269
 1182SOL    HW2 3674   3.486   2.095   3.362  1.8658  0.4986  1.4199
 1183SOL     OW 3675   2.277   3.268   2.229 -0.7018  0.3316 -0.4417
 1183SOL    HW1 3676   2.354   3.283   2.283 -0.5161 -1.2998 -0.1859
 1183SOL    HW2 3677   2.312   3.242   2.144 -0.9309 -0.6633 -0.2528
 1184SOL     OW 3678   2.397   1.752   1.320  0.2432  0.1865  0.3625
 1184SOL    HW1 3679   2.317   1.804   1.310 -0.2655 -0.5455  0.5197
 1184SOL    HW2 3680   2.468   1.813   1.302 -0.3933  0.5043 -1.3083
 1185SOL     OW 3681   3.356   0.487   1.908  0.5436 -0.2135  0.3647
 1185SOL    HW1 3682   3.397   0.573   1.900 -0.3351  0.5319  2.9035
 1185SOL    HW2 3683   3.403   0.444   1.979 -2.4477  0.4399  2.9770
 1186SOL     OW 3684   3.369   1.589   3.251 -0.0886 -0.2319  0.1605
 1186SOL    HW1 3685   3.337   1.586   3.341 -0.4872 -2.1480  0.0080
 1186SOL    HW2 3686   3.344   1.504   3.214  2.3145 -0.5488 -0.9557
 1187SOL     OW 3687   1.249   0.527   0.472 -0.6276 -0.2223  0.4178
 1187SOL    HW1 3688   1.285   0.606   0.432  0.6970 -0.8978  0.1924
 1187SOL    HW2 3689   1.267   0.537   0.565  0.5238 -0.7056  0.2700
 1188SOL     OW 3690   1.564   2.108   1.610 -0.5337  0.0644  0.3065
 1188SOL    HW1 3691   1.523   2.025   1.636  0.3692 -0.6486 -0.4684
 1188SOL    HW2 3692   1.654   2.084   1.588 -0.1285  1.3431  0.5229
 1189SOL     OW 3693   3.429   2.968   2.345  0.0296 -0.4005  0.0117
 1189SOL    HW1 3694   3.464   2.993   2.431 -0.3804 -1.3569  0.4806
 1189SOL    HW2 3695   3.482   3.017   2.282  1.6489 -1.1319  0.7321
 1190SOL     OW 3696   1.753   0.292   3.123  0.8435  0.1847 -0.1132
 1190SOL    HW1 3697   1.778   0.332   3.040  0.4881 -0.3185 -0.4663
 1190SOL    HW2 3698   1.763   0.362   3.187 -1.5105  1.3948 -0.9854
 1191SOL     OW 3699   3.203   2.972   0.101 -0.2437 -0.2991 -0.3081
 1191SOL    HW1 3700   3.223   2.981   0.194 -2.5925 -0.5480  0.2906
 1191SOL    HW2 3701   3.209   3.061   0.066  2.2567 -0.4027 -0.3660
 1192SOL     OW 3702   2.347   0.367   3.556  0.1826 -0.2416  0.4709
 1192SOL    HW1 3703   2.351   0.337   3.647  0.1750 -3.3415 -0.4516
 1192SOL    HW2 3704   2.260   0.342   3.526  0.3605  0.2930 -0.5345
 1193SOL     OW 3705   0.465   2.786   1.893  0.5863  0.1639  0.5960
 1193SOL    HW1 3706   0.520   2.718   1.932 -0.4546 -0.9165  0.2403
 1193SOL    HW2 3707   0.405   2.812   1.963 -0.6009 -1.0413  0.0805
 1194SOL     OW 3708   3.317   1.292   1.691 -0.0472  0.0903 -0.3095
 1194SOL    HW1 3709   3.253   1.228   1.660 -0.8617  0.6108  0.2741
 1194SOL    HW2 3710   3.359   1.323   1.611 -0.9542  0.1951 -0.7560
 1195SOL     OW 3711   3.590   0.355   3.664 -0.1351  0.2775 -0.7273
 1195SOL    HW1 3712   3.671   0.312   3.636 -1.2010 -2.4682  0.0857
 1195SOL    HW2 3713   3.609   0.385   3.753  0.6284  1.6226 -1.3123
 1196SOL     OW 3714   3.615   1.921   0.760  0.0119  0.4684 -0.0416
 1196SOL    HW1 3715   3.578   1.835   0.775  0.9458  0.0546  0.0028
 1196SOL    HW2 3716   3.545   1.982   0.779 -0.7147 -0.2879 -0.2390
 1197SOL     OW 3717   0.891   2.934   0.660 -0.2470  0.7076  0.0842
 1197SOL    HW1 3718   0.955   2.972   0.720  0.7203 -0.5478 -0.1049
 1197SOL    HW2 3719   0.892   2.993   0.584 -0.5621  1.6197  0.7711
 1198SOL     OW 3720   0.368   0.175   0.998  0.7556 -0.1687 -0.2211
 1198SOL    HW1 3721   0.318   0.163   0.918  0.1716  0.7516 -0.0120
 1198SOL    HW2 3722   0.318   0.129   1.066  0.6551  0.0081 -0.1751
 1199SOL     OW 3723   0.512   0.506   1.802  0.1778  0.2562  0.3394
 1199SOL    HW1 3724   0.570   0.570   1.762  0.6288 -0.3110  0.0712
 1199SOL    HW2 3725   0.565   0.466   1.872 -0.1587  0.3039  0.6273
 1200SOL     OW 3726   2.874   1.785   3.665 -0.0178  0.1227 -0.3831
 1200SOL    HW1 3727   2.779   1.773   3.672 -0.0967  0.0352 -1.3860
 1200SOL    HW2 3728   2.886   1.876   3.640  0.1959  0.2422  0.1280
 1201SOL     OW 3729   2.970   1.715   2.160 -0.6505  0.0017 -0.1552
 1201SOL    HW1 3730   2.949   1.622   2.170  0.9287 -0.4649 -0.8895
 1201SOL    HW2 3731   2.974   1.729   2.065  0.5692  0.4640 -0.0522
 1202SOL     OW 3732   3.312   2.273   3.520  0.0216 -0.5861 -0.1393
 1202SOL    HW1 3733   3.376   2.206   3.499  1.9891  1.9649 -3.0767
 1202SOL    HW2 3734   3.355   2.329   3.584 -0.7747 -0.8612  0.6670
 1203SOL     OW 3735   0.345   0.839   0.954  0.5394  0.1072  0.5599
 1203SOL    HW1 3736   0.322   0.865   0.864  1.3381 -3.5302 -0.8944
 1203SOL    HW2 3737   0.429   0.882   0.971  0.0693  1.3695 -0.1235
 1204SOL     OW 3738   2.370   2.144   2.259 -0.6259 -0.3510  0.1931
 1204SOL    HW1 3739   2.310   2.192   2.316 -0.9254 -1.0133  0.4522
 1204SOL    HW2 3740   2.314   2.114   2.187 -0.9190 -2.0729  1.0791
 1205SOL     OW 3741   1.982   2.405   0.901  0.0536 -0.0620 -0.3123
 1205SOL    HW1 3742   1.991   2.499   0.917 -2.4995  0.2110 -0.0545
 1205SOL    HW2 3743   2.043   2.364   0.962 -1.0366  1.3684  1.8856
 1206SOL     OW 3744   2.556   2.916   0.197 -0.0812  0.0854  0.1678
 1206SOL    HW1 3745   2.639   2.869   0.184 -0.4668 -0.0379 -2.1413
 1206SOL    HW2 3746   2.579   3.009   0.187  0.1030  0.2251  1.5953
 1207SOL     OW 3747   1.755   1.081   0.394  0.2294 -0.0509 -0.5047
 1207SOL    HW1 3748   1.720   1.004   0.348 -1.3014  0.1257  0.2915
 1207SOL    HW2 3749   1.689   1.149   0.380  0.7475  0.6123  0.2093
 1208SOL     OW 3750   1.789   3.158   2.440 -0.0579 -1.0908  0.1785
 1208SOL    HW1 3751   1.859   3.209   2.400 -0.4658 -1.6772 -1.3579
 1208SOL    HW2 3752   1.772   3.201   2.524  1.3870 -0.3004  0.0876
 1209SOL     OW 3753   0.808   1.820   2.396  0.1776  0.1603 -0.1472
 1209SOL    HW1 3754   0.713   1.829   2.395  0.0793 -0.5936  0.9436
 1209SOL    HW2 3755   0.827   1.756   2.327 -0.1083  0.2789 -0.3372
 1210SOL     OW 3756   1.307   0.766   0.354 -0.2734  0.0294  0.8018
 1210SOL    HW1 3757   1.360   0.763   0.274  2.2666 -1.6812  2.4049
 1210SOL    HW2 3758   1.341   0.842   0.401  1.9443 -1.8445  2.4598
 1211SOL     OW 3759   3.218   2.622   2.913  0.3439 -0.5165 -0.0870
 1211SOL    HW1 3760   3.276   2.548   2.895  2.6250  0.6863  1.7838
 1211SOL    HW2 3761   3.255   2.694   2.862  0.3485  0.1992  0.9096
 1212SOL     OW 3762   3.553   1.259   2.491 -0.3375 -0.3149 -0.2308
 1212SOL    HW1 3763   3.643   1.273   2.463 -0.5540  0.4387 -0.5660
 1212SOL    HW2 3764   3.522   1.345   2.520 -1.1237 -0.4368 -0.6511
 1213SOL     OW 3765   0.038   2.412   3.506 -0.0937  0.1761 -0.1381
 1213SOL    HW1 3766  -0.044   2.449   3.474 -1.3387 -0.5499  1.9848
 1213SOL    HW2 3767   0.058   2.342   3.443 -1.9675 -0.6560  0.1108
 1214SOL     OW 3768   1.448   1.032   0.194  0.1717 -0.4488 -1.2026
 1214SOL    HW1 3769   1.482   1.101   0.138 -2.5659  1.2638 -0.9589
 1214SOL    HW2 3770   1.524   0.977   0.214  2.6259  2.7294 -1.0034
 1215SOL     OW 3771   1.186   2.237   2.831  0.5618  0.2322 -0.0018
 1215SOL    HW1 3772   1.110   2.294   2.844 -0.2001 -0.2757 -1.8761
 1215SOL    HW2 3773   1.150   2.149   2.821  1.3942 -0.0502 -0.7513
 1216SOL     OW 3774   0.994   0.466   2.663  1.0503  0.7266 -0.0130
 1216SOL    HW1 3775   1.036   0.552   2.669 -0.9359  2.0494 -2.8094
 1216SOL    HW2 3776   0.901   0.484   2.677  0.3441 -0.5441 -2.4817
 1217SOL     OW 3777   3.572   1.696   3.086  0.3403  0.0615  0.6162
 1217SOL    HW1 3778   3.635   1.624   3.082  1.9727  1.4022  1.2356
 1217SOL    HW2 3779   3.526   1.683   3.169 -3.0552 -3.0864 -1.4385
 1218SOL     OW 3780   1.235   1.195   2.807 -0.1160 -0.5534  0.1954
 1218SOL    HW1 3781   1.246   1.289   2.820 -0.2790 -0.6005  0.6644
 1218SOL    HW2 3782   1.220   1.186   2.713 -0.1048 -0.1116  0.1491
 1219SOL     OW 3783   1.708   1.560   0.756  0.2506  0.2414  0.4715
 1219SOL    HW1 3784   1.693   1.647   0.718 -1.4088 -0.1104  0.2449
 1219SOL    HW2 3785   1.698   1.500   0.683  1.7760 -0.1369  0.5505
 1220SOL     OW 3786   0.665   1.342   1.938 -0.3348 -0.0059  0.2820
 1220SOL    HW1 3787   0.672   1.433   1.967 -0.6296 -0.2822  1.2604
 1220SOL    HW2 3788   0.756   1.314   1.925 -0.2040  0.1903  0.7508
 1221SOL     OW 3789   2.570   1.443   2.420  0.3121 -0.0557 -0.2947
 1221SOL    HW1 3790   2.586   1.512   2.355 -1.3048 -0.3127 -1.0290
 1221SOL    HW2 3791   2.583   1.486   2.504 -0.4075  1.1062 -0.7464
 1222SOL     OW 3792   3.463   3.277   1.120  0.9362 -0.4168  0.7496
 1222SOL    HW1 3793   3.516   3.353   1.142  0.1336  0.4390 -0.1521
 1222SOL    HW2 3794   3.507   3.238   1.044 -0.4254  1.1393 -0.9340
 1223SOL     OW 3795   2.437   1.614   0.780 -0.3631 -0.8602  0.1729
 1223SOL    HW1 3796   2.499   1.610   0.853 -0.0887 -1.0244 -0.0658
 1223SOL    HW2 3797   2.492   1.610   0.702 -0.7408 -2.2023 -0.0522
 1224SOL     OW 3798   0.032   0.686   2.629  0.2479 -0.2429  0.4806
 1224SOL    HW1 3799  -0.058   0.655   2.626 -0.3464  1.1492  2.0552
 1224SOL    HW2 3800   0.032   0.765   2.574  0.5887 -0.4214  0.2215
 1225SOL     OW 3801   1.200   0.910   0.080 -0.2246  0.2440  0.0770
 1225SOL    HW1 3802   1.222   0.883  -0.009 -2.5515  0.7845 -0.7425
 1225SOL    HW2 3803   1.281   0.947   0.114  1.3958 -2.1044 -0.9117
 1226SOL     OW 3804   0.392   2.356   1.841 -0.0651  0.5258 -0.0311
 1226SOL    HW1 3805   0.305   2.317   1.850  0.5776 -0.5190  2.7352
 1226SOL    HW2 3806   0.387   2.437   1.891  0.5075  0.5128  0.0533
 1227SOL     OW 3807   2.811   2.251   1.295  0.6064  0.2314  0.3253
 1227SOL    HW1 3808   2.887   2.200   1.264 -0.5674 -0.2992 -1.8536
 1227SOL    HW2 3809   2.775   2.197   1.365  0.9135 -0.6618 -0.1775
 1228SOL     OW 3810   3.094   0.219   1.011  0.6376 -0.3984  0.2697
 1228SOL    HW1 3811   3.167   0.267   1.051  0.6380 -0.4059  0.2780
 1228SOL    HW2 3812   3.076   0.265   0.929  0.7255 -0.4652  0.2134
 1229SOL     OW 3813   2.567   0.509   0.234 -0.1351  0.0189 -0.8559
 1229SOL    HW1 3814   2.533   0.430   0.278 -0.4059  0.4752 -0.2215
 1229SOL    HW2 3815   2.495   0.538   0.178 -0.4860  0.4938 -0.1704
 1230SOL     OW 3816   0.435   0.905   0.035  0.7280 -0.1787 -0.0785
 1230SOL    HW1 3817   0.384   0.980   0.005  1.6427  0.1282 -0.9077
 1230SOL    HW2 3818   0.527   0.931   0.021  1.0435 -1.8515 -1.4010
 1231SOL     OW 3819   3.681   3.315   0.412  0.4322  0.0201 -0.1145
 1231SOL    HW1 3820   3.718   3.393   0.453  3.2573 -0.1399 -2.0932
 1231SOL    HW2 3821   3.688   3.247   0.479  0.9812  0.7233  0.5610
 1232SOL     OW 3822   3.495   1.610   2.228 -0.2698  0.1267 -0.6928
 1232SOL    HW1 3823   3.411   1.583   2.192  0.3123 -2.0966 -0.5459
 1232SOL    HW2 3824   3.555   1.538   2.205  1.2757  1.0128  0.3721
 1233SOL     OW 3825   2.147   3.421   2.624  0.9460  0.4194 -0.5119
 1233SOL    HW1 3826   2.146   3.332   2.588 -1.1146  0.6760 -1.2360
 1233SOL    HW2 3827   2.234   3.454   2.605  1.8592 -1.5477  0.0503
 1234SOL     OW 3828   1.456   2.358   3.364 -0.1444 -0.2172 -0.4357
 1234SOL    HW1 3829   1.518   2.429   3.379 -0.3446 -0.2328  0.5647
 1234SOL    HW2 3830   1.370   2.401   3.367 -0.2185 -0.3281 -0.9511
 1235SOL     OW 3831   2.459   3.270   0.627  0.4131 -0.9122  0.4073
 1235SOL    HW1 3832   2.495   3.190   0.664  0.2135  0.1479  3.1390
 1235SOL    HW2 3833   2.535   3.324   0.605  0.5446 -0.6923  1.3754
 1236SOL     OW 3834   3.063   3.317   2.609  0.3285  0.3041  0.1382
 1236SOL    HW1 3835   3.108   3.237   2.636  0.0061 -0.0252 -0.2857
 1236SOL    HW2 3836   3.019   3.347   2.688 -0.1282 -0.3266  0.1351
 1237SOL     OW 3837   2.046   3.418   1.913  0.0584  0.4133  0.0323
 1237SOL    HW1 3838   2.043   3.331   1.872  1.2257  0.1508  0.4793
 1237SOL    HW2 3839   2.047   3.400   2.007  0.0286  0.9214  0.1290
 1238SOL     OW 3840   1.623   3.392   0.239  0.4484  0.3415  0.6226
 1238SOL    HW1 3841   1.595   3.474   0.200  0.9753 -0.0328 -0.5944
 1238SOL    HW2 3842   1.636   3.333   0.165  0.5756 -0.6828  1.4355
 1239SOL     OW 3843   3.312   2.955   0.340  0.1475 -0.0542  0.1309
 1239SOL    HW1 3844   3.380   2.891   0.362  0.0531  0.0065  0.6151
 1239SOL    HW2 3845   3.267   2.971   0.423  2.0836  2.9311  0.7722
 1240SOL     OW 3846   1.210   1.182   3.628  0.1011 -0.6134  0.4289
 1240SOL    HW1 3847   1.202   1.113   3.694  0.6944 -2.9051 -1.7174
 1240SOL    HW2 3848   1.228   1.262   3.678 -1.3027 -1.8422  3.0901
 1241SOL     OW 3849   1.255   0.834   3.521 -0.7468 -0.3382 -0.4872
 1241SOL    HW1 3850   1.211   0.825   3.436  1.6394  1.7965 -2.1169
 1241SOL    HW2 3851   1.343   0.798   3.506 -0.5527 -0.7588  1.4042
 1242SOL     OW 3852   3.452   3.372   1.893 -0.8668  0.3391  0.4597
 1242SOL    HW1 3853   3.435   3.383   1.799  1.1716 -1.5989 -0.2258
 1242SOL    HW2 3854   3.542   3.402   1.904 -0.8177 -0.2106  1.6380
 1243SOL     OW 3855   2.668   1.694   0.589 -0.0158 -0.5803 -0.4807
 1243SOL    HW1 3856   2.691   1.608   0.626  2.1391 -0.0923 -0.5761
 1243SOL    HW2 3857   2.667   1.753   0.665 -2.4150 -0.7730 -0.2638
 1244SOL     OW 3858   2.247   2.904   1.816 -0.2809 -0.8692  0.3897
 1244SOL    HW1 3859   2.314   2.854   1.771  0.3074 -0.5521  0.8966
 1244SOL    HW2 3860   2.235   2.982   1.762  0.7479 -0.2713  0.9921
 1245SOL     OW 3861   1.339   3.321   3.441 -0.4902  0.0466  0.7864
 1245SOL    HW1 3862   1.421   3.370   3.450 -0.7946  0.3948  1.8418
 1245SOL    HW2 3863   1.276   3.370   3.494 -1.2901 -0.4428  0.3202
 1246SOL     OW 3864   0.378   0.282   0.336  0.0598  0.6997  0.1237
 1246SOL    HW1 3865   0.315   0.353   0.344 -0.9893 -0.1317 -0.5428
 1246SOL    HW2 3866   0.359   0.224   0.410  1.8397  1.7663  1.5051
 1247SOL     OW 3867   1.599   1.759   1.942  0.2651  0.3452 -0.9253
 1247SOL    HW1 3868   1.592   1.688   2.005 -0.0160  0.1400 -1.1835
 1247SOL    HW2 3869   1.525   1.817   1.961  0.3327  0.4230 -0.8960
 1248SOL     OW 3870   0.214   0.036   0.367 -0.1825  0.1352  0.1246
 1248SOL    HW1 3871   0.209   0.029   0.272 -0.7892  0.7425  0.1088
 1248SOL    HW2 3872   0.127   0.066   0.394 -0.4797 -1.3971  0.9974
 1249SOL     OW 3873   2.580   2.924   3.294  0.1933  0.4489  0.0359
 1249SOL    HW1 3874   2.547   2.961   3.376  0.7885  1.0036  0.0381
 1249SOL    HW2 3875   2.510   2.937   3.231 -0.1297  0.3437  0.3689
 1250SOL     OW 3876   1.952   1.124   0.196  0.3436 -0.6642 -0.1544
 1250SOL    HW1 3877   1.905   1.077   0.127 -2.7894  0.4964  1.0081
 1250SOL    HW2 3878   1.891   1.125   0.270  1.5202  2.3761  0.9289
 1251SOL     OW 3879   0.523   0.400   2.647  0.0702  0.3522 -0.1066
 1251SOL    HW1 3880   0.603   0.453   2.650  0.4246 -0.0023 -2.0623
 1251SOL    HW2 3881   0.454   0.461   2.620  0.1655  0.1799 -0.7646
 1252SOL     OW 3882   0.547   2.427   3.476  0.3501 -0.3259  0.0836
 1252SOL    HW1 3883   0.509   2.365   3.538 -2.8522 -0.7740 -2.0550
 1252SOL    HW2 3884   0.614   2.376   3.429  1.7045 -0.4187  2.0242
 1253SOL     OW 3885   1.505   3.667   3.299  0.2665  0.2924  0.3262
 1253SOL    HW1 3886   1.413   3.643   3.288  0.1053  0.3416  1.5024
 1253SOL    HW2 3887   1.506   3.762   3.290  0.2801  0.2508 -0.1459
 1254SOL     OW 3888   3.295   0.335   3.502  0.0229 -0.0780  0.9247
 1254SOL    HW1 3889   3.256   0.381   3.576  0.1068 -1.8936  2.1609
 1254SOL    HW2 3890   3.387   0.325   3.525  0.5982  1.4206 -0.5451
 1255SOL     OW 3891   3.204   0.392   2.723 -0.7139 -0.7581 -0.2398
 1255SOL    HW1 3892   3.270   0.374   2.656 -0.4901 -0.9600  0.0349
 1255SOL    HW2 3893   3.221   0.482   2.750 -0.1175 -1.0317  0.3139
 1256SOL     OW 3894   0.402   2.688   3.590 -0.2948  0.2072 -0.3560
 1256SOL    HW1 3895   0.339   2.625   3.627 -0.0631 -0.2921 -0.7936
 1256SOL    HW2 3896   0.479   2.635   3.570 -0.7211  0.2731 -2.3549
 1257SOL     OW 3897   2.773   1.559   2.976 -0.2953  0.0580 -0.4718
 1257SOL    HW1 3898   2.814   1.526   2.896  0.0623 -2.4094  0.6180
 1257SOL    HW2 3899   2.690   1.512   2.982  1.0713 -2.3519  2.1070
 1258SOL     OW 3900   1.082   0.942   0.909 -0.4983 -0.5559  0.0502
 1258SOL    HW1 3901   1.109   0.861   0.866 -2.3301  0.2455 -2.9151
 1258SOL    HW2 3902   0.989   0.929   0.928 -0.2391 -0.0183  1.8655
 1259SOL     OW 3903   2.232   2.797   3.604  0.3561 -0.7407  0.4256
 1259SOL    HW1 3904   2.326   2.810   3.617  0.2334 -0.1727  0.7751
 1259SOL    HW2 3905   2.192   2.876   3.639 -0.1355 -0.0651 -1.4979
 1260SOL     OW 3906   2.022   2.693   0.815 -0.2376  0.0302 -0.2564
 1260SOL    HW1 3907   1.964   2.699   0.739  0.9137  1.8176 -1.0483
 1260SOL    HW2 3908   2.074   2.773   0.812  1.4941 -0.9786  1.0680
 1261SOL     OW 3909   2.630   3.494   0.593  0.1347 -0.3465 -0.3918
 1261SOL    HW1 3910   2.588   3.579   0.610 -0.4128 -0.2745 -1.9398
 1261SOL    HW2 3911   2.657   3.463   0.679  2.6264  2.5451  0.0325
 1262SOL     OW 3912   1.380   0.766   2.534 -0.5254 -0.0965 -0.5004
 1262SOL    HW1 3913   1.455   0.817   2.563 -2.1752  1.9652  0.3435
 1262SOL    HW2 3914   1.413   0.715   2.459  1.5244  1.2062 -0.5411
 1263SOL     OW 3915  -0.016   2.308   2.423  0.7689  0.2026 -0.2045
 1263SOL    HW1 3916   0.046   2.357   2.368  0.7151  1.4975  0.8441
 1263SOL    HW2 3917   0.033   2.287   2.502  0.4022 -0.3658 -0.1210
 1264SOL     OW 3918   3.649   0.206   1.478 -0.2004  0.5843 -0.1136
 1264SOL    HW1 3919   3.670   0.298   1.495 -0.7550  0.7645 -0.3557
 1264SOL    HW2 3920   3.732   0.160   1.486  0.5088  1.4133 -2.1103
 1265SOL     OW 3921   1.430   3.525   0.635 -0.3164 -0.5666  0.5165
 1265SOL    HW1 3922   1.399   3.456   0.694 -0.0853  0.1114  1.4637
 1265SOL    HW2 3923   1.378   3.602   0.659 -0.9670 -0.5446 -0.9117
 1266SOL     OW 3924   0.470   3.453   2.919  0.1201  0.4668  0.6779
 1266SOL    HW1 3925   0.537   3.499   2.969 -1.3163  1.9160  1.3260
 1266SOL    HW2 3926   0.447   3.513   2.848 -0.2677 -0.1473  0.2715
 1267SOL     OW 3927   0.804   1.215   1.047 -0.0345  0.0402  0.5221
 1267SOL    HW1 3928   0.832   1.304   1.068 -1.6694  0.4357  1.1232
 1267SOL    HW2 3929   0.813   1.210   0.952 -1.1283  1.2955  0.3263
 1268SOL     OW 3930   2.409   2.746   2.431 -0.0362  0.4165  0.0608
 1268SOL    HW1 3931   2.456   2.815   2.477  0.4918 -0.0580  0.2467
 1268SOL    HW2 3932   2.476   2.679   2.413  0.0926  1.0996 -2.4703
 1269SOL     OW 3933   2.279   0.336   2.689  0.3495  0.0155  0.6482
 1269SOL    HW1 3934   2.248   0.260   2.640  0.7578 -0.4218  1.0475
 1269SOL    HW2 3935   2.228   0.335   2.770 -3.0078  2.8555 -1.1986
 1270SOL     OW 3936   2.679   2.166   3.209  0.4069  0.8556 -0.0539
 1270SOL    HW1 3937   2.700   2.110   3.284 -0.9473  1.7967  1.0800
 1270SOL    HW2 3938   2.663   2.105   3.137  0.3746 -0.1492  0.7797
 1271SOL     OW 3939   2.752   3.211   0.644  0.4929  0.1603 -0.2959
 1271SOL    HW1 3940   2.715   3.123   0.656  0.8377  0.0364 -0.1114
 1271SOL    HW2 3941   2.728   3.258   0.724 -0.4794  0.5236 -0.7910
 1272SOL     OW 3942   0.303   3.413   0.187  0.0950 -0.9655  0.1530
 1272SOL    HW1 3943   0.229   3.386   0.133 -0.9966 -0.2774  1.2636
 1272SOL    HW2 3944   0.380   3.396   0.132 -0.9878  0.4232 -1.9527
 1273SOL     OW 3945   0.959   1.010   0.310  0.4404 -0.2343 -0.1113
 1273SOL    HW1 3946   1.021   1.079   0.287  1.9423 -1.1066  1.1259
 1273SOL    HW2 3947   0.987   0.934   0.258 -1.2646  0.0382 -1.5501
 1274SOL     OW 3948   3.412   3.196   1.378 -0.3271  0.2732  0.2972
 1274SOL    HW1 3949   3.407   3.190   1.283  0.3137 -0.1358  0.2867
 1274SOL    HW2 3950   3.321   3.194   1.407 -0.5423  0.7778 -0.3258
 1275SOL     OW 3951   3.093   1.200   3.493  0.2803  0.2038  0.6559
 1275SOL    HW1 3952   3.030   1.146   3.445 -0.3886 -0.0508  1.8104
 1275SOL    HW2 3953   3.069   1.290   3.470 -0.0030  0.0852  0.4741
 1276SOL     OW 3954   3.347   1.129   3.468 -0.6740 -0.1719 -0.1043
 1276SOL    HW1 3955   3.364   1.098   3.379 -0.9083 -0.0587 -0.1892
 1276SOL    HW2 3956   3.255   1.154   3.468 -1.2395 -2.0524  0.7243
 1277SOL     OW 3957   2.249   1.153   2.701  0.0859  0.6777 -0.5034
 1277SOL    HW1 3958   2.287   1.199   2.776 -0.6879  3.1494 -1.5289
 1277SOL    HW2 3959   2.291   1.193   2.625 -0.9439 -0.0251 -1.4652
 1278SOL     OW 3960   1.675   3.597   2.310 -0.3060 -0.1997 -0.1457
 1278SOL    HW1 3961   1.698   3.663   2.375 -0.3634  0.0666 -0.3907
 1278SOL    HW2 3962   1.598   3.553   2.346 -1.6818  1.3961 -1.0002
 1279SOL     OW 3963   3.044   1.215   2.644  0.1837 -0.5355  0.3003
 1279SOL    HW1 3964   3.002   1.211   2.558 -1.0533  1.8624  0.7206
 1279SOL    HW2 3965   2.974   1.197   2.707  0.7159 -0.5933  0.8917
 1280SOL     OW 3966   0.550   3.636   3.120 -0.2642 -0.4141 -0.1233
 1280SOL    HW1 3967   0.559   3.721   3.076  1.8170  0.1329  1.1810
 1280SOL    HW2 3968   0.490   3.653   3.192 -0.5579 -0.2937 -0.3909
 1281SOL     OW 3969   3.333   2.535   3.653  0.1903 -0.1372 -0.1106
 1281SOL    HW1 3970   3.346   2.592   3.577 -1.1181 -0.0070 -0.2582
 1281SOL    HW2 3971   3.399   2.564   3.716  2.9864 -1.8387 -2.0296
 1282SOL     OW 3972   2.222   1.945   1.092  0.4788  0.0659 -0.3708
 1282SOL    HW1 3973   2.184   1.997   1.021  0.0767  0.3639  0.0575
 1282SOL    HW2 3974   2.152   1.940   1.157 -0.1476 -2.4773 -1.1292
 1283SOL     OW 3975   3.478   2.711   1.988 -0.4169 -0.1089  0.8509
 1283SOL    HW1 3976   3.391   2.727   2.024 -0.7611 -2.1770  1.0496
 1283SOL    HW2 3977   3.503   2.794   1.949 -2.7738  0.3718  0.1848
 1284SOL     OW 3978   2.752   2.472   0.385  0.1550  0.0427  0.2816
 1284SOL    HW1 3979   2.790   2.474   0.297  1.7527  0.1952  0.9309
 1284SOL    HW2 3980   2.764   2.381   0.414 -2.8756 -0.7549 -0.6373
 1285SOL     OW 3981   1.747   1.410   0.348 -0.6432  0.7445  0.2619
 1285SOL    HW1 3982   1.673   1.376   0.399  0.7137 -1.7461  0.7484
 1285SOL    HW2 3983   1.721   1.397   0.257  0.4626 -3.6872  0.3561
 1286SOL     OW 3984   0.024   3.546   0.932  0.8689  0.0258  0.0900
 1286SOL    HW1 3985   0.017   3.518   1.023 -0.0129 -0.3978 -0.0943
 1286SOL    HW2 3986   0.101   3.501   0.899  0.4348 -0.8842  0.2744
 1287SOL     OW 3987   3.009   1.592   0.147  0.7408  0.2476  0.2577
 1287SOL    HW1 3988   2.937   1.529   0.147  0.4434  0.5856  0.6025
 1287SOL    HW2 3989   2.998   1.641   0.066  1.2199 -0.4180 -0.2209
 1288SOL     OW 3990   2.137   0.375   0.528  0.0316 -0.2930  0.1345
 1288SOL    HW1 3991   2.217   0.358   0.577  1.1479  1.1218 -1.1129
 1288SOL    HW2 3992   2.078   0.303   0.552  0.7699 -0.0770  2.9207
 1289SOL     OW 3993   0.461   0.339   2.301 -0.3120 -0.6257 -0.1905
 1289SOL    HW1 3994   0.437   0.390   2.224 -0.8870  1.5749  1.3334
 1289SOL    HW2 3995   0.554   0.359   2.315 -0.0309 -1.5547 -0.6719
 1290SOL     OW 3996   0.203   2.912   0.954 -1.0772  0.1338  0.4842
 1290SOL    HW1 3997   0.175   2.831   0.997 -3.7781  0.4177 -0.5279
 1290SOL    HW2 3998   0.144   2.921   0.879 -0.3012  2.6112  0.0699
 1291SOL     OW 3999   3.158   0.503   3.663  0.0862 -0.0353 -0.0288
 1291SOL    HW1 4000   3.066   0.525   3.652 -0.8841 -2.6237  1.8198
 1291SOL    HW2 4001   3.181   0.539   3.748  0.4920 -0.2650 -0.0395
 1292SOL     OW 4002   0.848   0.583   1.561  0.4556 -0.3555  0.1609
 1292SOL    HW1 4003   0.759   0.559   1.533 -0.4870  0.1840  2.4073
 1292SOL    HW2 4004   0.844   0.678   1.574  0.9648 -0.4932  1.4742
 1293SOL     OW 4005   1.029   3.110   0.803 -0.4160  0.6784  0.0693
 1293SOL    HW1 4006   1.098   3.051   0.831  0.0510  1.2169  0.0783
 1293SOL    HW2 4007   0.985   3.137   0.883 -1.1003 -0.2055  0.0094
 1294SOL     OW 4008   2.464   0.944   2.881 -0.2369 -0.1373  0.5747
 1294SOL    HW1 4009   2.504   1.031   2.873  1.1937 -0.8172 -0.0540
 1294SOL    HW2 4010   2.446   0.917   2.791 -1.8611 -0.0029  0.8263
 1295SOL     OW 4011   3.686   2.664   2.160 -0.5108  0.1039  0.4058
 1295SOL    HW1 4012   3.608   2.669   2.105  0.3757 -1.8464 -1.1385
 1295SOL    HW2 4013   3.671   2.586   2.215  0.9879 -1.3225 -1.0936
 1296SOL     OW 4014   2.698   1.181   0.367  0.9018  0.1806  0.6508
 1296SOL    HW1 4015   2.612   1.221   0.382 -0.2034 -0.8568 -2.1606
 1296SOL    HW2 4016   2.737   1.233   0.297  1.6661 -0.5151  0.5449
 1297SOL     OW 4017   3.255   0.266   3.045 -0.1682  0.3114  0.0653
 1297SOL    HW1 4018   3.341   0.304   3.030 -0.2041 -0.2622 -1.8829
 1297SOL    HW2 4019   3.222   0.245   2.958 -1.7306 -0.6922  0.8392
 1298SOL     OW 4020   1.506   0.568   0.698 -0.2330 -0.7605  0.2929
 1298SOL    HW1 4021   1.477   0.653   0.665 -1.3682 -0.2406  2.4366
 1298SOL    HW2 4022   1.597   0.561   0.671  0.6008  2.1722  1.9064
 1299SOL     OW 4023   0.939   2.343   2.165  0.0903  0.1843 -0.0903
 1299SOL    HW1 4024   0.955   2.249   2.160 -0.4228  0.1113 -4.3100
 1299SOL    HW2 4025   1.023   2.380   2.195  0.6016 -1.5310  0.7015
 1300SOL     OW 4026   3.049   1.172   3.078 -0.0647  0.1520 -0.1194
 1300SOL    HW1 4027   2.993   1.115   3.026 -0.9818  0.1555  0.8291
 1300SOL    HW2 4028   3.018   1.161   3.168  1.6699 -0.0875  0.4941
 1301SOL     OW 4029   3.694   1.854   2.339 -0.1396 -0.3381 -0.4386
 1301SOL    HW1 4030   3.644   1.903   2.404  0.4123  0.0746 -0.3211
 1301SOL    HW2 4031   3.682   1.903   2.258  0.9573  0.3927 -0.1844
 1302SOL     OW 4032   2.617   3.202   0.246  0.3637 -0.3415 -0.0280
 1302SOL    HW1 4033   2.530   3.231   0.275 -0.0818 -1.0571 -0.6048
 1302SOL    HW2 4034   2.621   3.230   0.154  0.8381 -0.1175  0.0578
 1303SOL     OW 4035   2.520   2.319   1.472 -0.0205  0.4864 -0.1220
 1303SOL    HW1 4036   2.493   2.399   1.428 -0.9412 -0.3873 -1.2271
 1303SOL    HW2 4037   2.469   2.317   1.553 -0.4137  0.7365 -0.3620
 1304SOL     OW 4038   1.769   2.307   3.527 -0.4339  0.7664 -0.2247
 1304SOL    HW1 4039   1.837   2.346   3.472  1.8615 -2.0602  0.3242
 1304SOL    HW2 4040   1.752   2.222   3.486 -1.3546  0.1453  1.3748
 1305SOL     OW 4041   1.083   1.239   2.531 -0.1240  0.3320  0.6828
 1305SOL    HW1 4042   1.037   1.215   2.612 -0.5832  1.5084  0.7902
 1305SOL    HW2 4043   1.035   1.315   2.497  0.5044  0.3059 -0.3082
 1306SOL     OW 4044   2.996   1.084   1.562 -0.2914 -0.9700 -0.3520
 1306SOL    HW1 4045   2.999   1.058   1.470 -1.8129 -0.1433 -0.6794
 1306SOL    HW2 4046   2.903   1.103   1.578 -0.0270 -0.9252  1.3112
 1307SOL     OW 4047   2.717   3.400   0.841  0.8399  0.3709  0.0092
 1307SOL    HW1 4048   2.791   3.408   0.901  0.5550 -1.7135  0.7165
 1307SOL    HW2 4049   2.641   3.426   0.893  0.9929  2.3515 -0.6686
 1308SOL     OW 4050   1.302   1.453   0.638 -0.3839 -0.2058  0.5768
 1308SOL    HW1 4051   1.312   1.530   0.582 -0.3829 -1.2795 -0.9669
 1308SOL    HW2 4052   1.319   1.485   0.726  3.0051  0.9454 -0.3227
 1309SOL     OW 4053   0.164   3.469   0.612 -0.0347  0.0767  0.0469
 1309SOL    HW1 4054   0.208   3.479   0.696  1.6060 -3.5294 -0.1888
 1309SOL    HW2 4055   0.226   3.421   0.557 -1.6104  1.0105 -2.7747
 1310SOL     OW 4056   1.303   0.607   0.955 -0.0322  0.5486 -0.3426
 1310SOL    HW1 4057   1.303   0.672   1.026  0.9690 -0.0811  0.2592
 1310SOL    HW2 4058   1.319   0.524   0.999 -1.7317 -0.1912 -1.0569
 1311SOL     OW 4059   2.003   0.010   1.300  0.0024 -0.4440 -0.6075
 1311SOL    HW1 4060   1.952   0.002   1.220 -0.7851  1.5838 -0.3696
 1311SOL    HW2 4061   2.009   0.105   1.315 -0.9590 -0.7570  2.4018
 1312SOL     OW 4062   3.274   2.454   2.061  0.2573 -0.2497 -0.0895
 1312SOL    HW1 4063   3.280   2.405   1.979 -1.9968 -1.4593  0.3858
 1312SOL    HW2 4064   3.272   2.546   2.033  1.0009 -0.5677 -1.2623
 1313SOL     OW 4065   1.863   1.556   1.408  0.5726  0.0686 -0.2643
 1313SOL    HW1 4066   1.865   1.540   1.314 -1.2940 -0.2299 -0.2757
 1313SOL    HW2 4067   1.772   1.545   1.433  1.1621 -0.7375  1.7457
 1314SOL     OW 4068   1.893   2.264   2.608  0.3407 -0.0441  0.4419
 1314SOL    HW1 4069   1.810   2.219   2.622  1.2441 -1.2579  2.1849
 1314SOL    HW2 4070   1.904   2.265   2.513 -1.5125 -0.0851  0.1829
 1315SOL     OW 4071   3.236   0.584   0.189  0.3293  0.0631  0.6359
 1315SOL    HW1 4072   3.188   0.597   0.271 -0.8361 -2.2921  0.3950
 1315SOL    HW2 4073   3.328   0.579   0.216  0.1351  0.9557  1.5542
 1316SOL     OW 4074   3.585   1.955   1.896  0.5444  0.0762 -0.3759
 1316SOL    HW1 4075   3.609   1.980   1.985  1.0685  1.6757 -0.9388
 1316SOL    HW2 4076   3.590   1.860   1.896  0.7948  0.0598  1.2271
 1317SOL     OW 4077   0.684   1.373   2.654 -0.1822 -0.3459  0.1923
 1317SOL    HW1 4078   0.592   1.378   2.627  0.1401 -0.4727 -0.9831
 1317SOL    HW2 4079   0.692   1.437   2.725 -1.1522 -0.2724  0.2502
 1318SOL     OW 4080   2.271   3.480   0.587 -0.8138  0.5897 -0.4543
 1318SOL    HW1 4081   2.341   3.416   0.580 -1.5181 -0.2249 -0.2694
 1318SOL    HW2 4082   2.205   3.449   0.524 -2.7551 -0.9715  2.1648
 1319SOL     OW 4083   3.054   1.006   1.998  0.5084  0.1213 -0.4181
 1319SOL    HW1 4084   3.094   0.994   2.084  0.9676  2.3260 -0.2767
 1319SOL    HW2 4085   3.043   1.100   1.989 -0.8906 -0.1504 -2.1868
 1320SOL     OW 4086   1.149   0.208   0.836  0.2226  0.4538 -0.0733
 1320SOL    HW1 4087   1.195   0.166   0.763  0.5381 -0.2677  0.5306
 1320SOL    HW2 4088   1.171   0.301   0.827  1.0862  0.2398 -0.3220
 1321SOL     OW 4089   2.722   2.305   1.047  0.1616 -0.2165  0.5853
 1321SOL    HW1 4090   2.760   2.318   1.134  0.0505 -0.5124  0.6776
 1321SOL    HW2 4091   2.631   2.280   1.063  0.6812 -2.3788  0.4681
 1322SOL     OW 4092   3.002   2.773   2.941 -0.0439 -0.5381  0.0960
 1322SOL    HW1 4093   2.929   2.715   2.958 -1.8036 -0.4062 -5.2035
 1322SOL    HW2 4094   3.075   2.715   2.919  0.1075 -0.6561  0.8721
 1323SOL     OW 4095   0.300   0.043   0.769  0.0096  0.5674  0.3606
 1323SOL    HW1 4096   0.385   0.001   0.758 -0.9875 -1.7828  1.0598
 1323SOL    HW2 4097   0.261   0.040   0.682 -0.3218 -0.6321  0.5372
 1324SOL     OW 4098   0.675   0.929   0.320  0.2563 -0.1531 -0.2747
 1324SOL    HW1 4099   0.764   0.962   0.310  0.2416 -0.3630 -1.1584
 1324SOL    HW2 4100   0.619   1.002   0.295  0.1843 -0.1127  0.0041
 1325SOL     OW 4101   1.507   2.323   0.632  0.7716  0.6628  0.1512
 1325SOL    HW1 4102   1.597   2.321   0.664  0.3493  2.6094  1.6652
 1325SOL    HW2 4103   1.512   2.291   0.542  2.6049 -1.3730  0.9043
 1326SOL     OW 4104   0.681   2.796   3.359  0.9102 -0.2078 -0.0938
 1326SOL    HW1 4105   0.639   2.732   3.301  0.1524  0.7206 -0.5950
 1326SOL    HW2 4106   0.770   2.764   3.370  0.5378 -1.3689 -0.3043
 1327SOL     OW 4107   2.066   2.982   2.836 -0.5975  0.0220 -0.0825
 1327SOL    HW1 4108   2.142   3.033   2.805 -0.4891  1.3088  2.0870
 1327SOL    HW2 4109   1.990   3.031   2.805 -0.5161  0.1412 -0.0944
 1328SOL     OW 4110   2.200   1.427   1.480  0.2323  0.6857  0.0142
 1328SOL    HW1 4111   2.179   1.470   1.398  3.1162  1.0070 -0.6478
 1328SOL    HW2 4112   2.230   1.340   1.455  0.3060  0.4717  0.8050
 1329SOL     OW 4113   1.047   2.597   3.076  0.2255  0.7386  0.1566
 1329SOL    HW1 4114   1.003   2.516   3.103 -0.9378  1.8738  1.8402
 1329SOL    HW2 4115   1.022   2.661   3.142  0.2040  2.7950 -1.7357
 1330SOL     OW 4116   2.945   2.869   0.589 -0.1610  0.0337 -0.3404
 1330SOL    HW1 4117   2.883   2.834   0.526 -0.1007  0.1721 -0.4777
 1330SOL    HW2 4118   3.015   2.804   0.592 -1.6270 -1.5872  1.9531
 1331SOL     OW 4119   2.228   0.436   1.578  0.3484  0.6572 -0.1451
 1331SOL    HW1 4120   2.199   0.345   1.571  1.6493  0.0926  1.2108
 1331SOL    HW2 4121   2.159   0.479   1.629 -0.8451  0.7521 -1.7697
 1332SOL     OW 4122   0.455   2.754   0.880  1.1725 -0.6580 -0.1118
 1332SOL    HW1 4123   0.433   2.713   0.796  1.9464 -2.0113  0.3122
 1332SOL    HW2 4124   0.481   2.843   0.858  0.3304 -0.6565 -1.1758
 1333SOL     OW 4125   2.319   3.667   1.173  0.3162 -0.1273 -0.4084
 1333SOL    HW1 4126   2.237   3.661   1.223 -0.2566  0.4152 -1.2590
 1333SOL    HW2 4127   2.379   3.713   1.231 -0.2390  0.2034 -0.0898
 1334SOL     OW 4128   3.266   2.256   0.692  0.3436 -0.0145 -0.1891
 1334SOL    HW1 4129   3.338   2.211   0.737  0.6769  0.2094 -0.4923
 1334SOL    HW2 4130   3.304   2.338   0.661  0.4745 -0.6952 -1.9392
 1335SOL     OW 4131   2.564   1.820   0.084  0.0890  0.0169  0.5967
 1335SOL    HW1 4132   2.576   1.787   0.173  0.7086 -0.6337  0.2768
 1335SOL    HW2 4133   2.471   1.838   0.077  0.4035  3.2391  2.4798
 1336SOL     OW 4134   2.748   1.233   1.568 -0.2643  0.2910 -0.0841
 1336SOL    HW1 4135   2.760   1.192   1.654  2.2083 -0.2913 -0.6335
 1336SOL    HW2 4136   2.772   1.325   1.582  1.4182 -0.0691 -0.3602
 1337SOL     OW 4137   1.711   1.723   1.717  0.0145 -0.0480 -0.2003
 1337SOL    HW1 4138   1.657   1.755   1.789 -1.2888  1.4561 -1.7594
 1337SOL    HW2 4139   1.711   1.628   1.729 -1.3198  0.0509  0.9950
 1338SOL     OW 4140   2.596   0.859   1.840 -0.0402 -0.0715  0.4741
 1338SOL    HW1 4141   2.640   0.829   1.920 -0.9274  0.7811  1.3127
 1338SOL    HW2 4142   2.510   0.817   1.843 -0.3245  0.4864  0.3253
 1339SOL     OW 4143   1.367   2.638   1.726 -0.5087  0.2295 -0.3334
 1339SOL    HW1 4144   1.302   2.568   1.722 -0.2736  0.0451 -1.1281
 1339SOL    HW2 4145   1.379   2.664   1.635  1.9113 -1.0069 -0.4458
 1340SOL     OW 4146   0.918   2.389   2.538 -0.8136 -0.3699 -0.1742
 1340SOL    HW1 4147   0.829   2.352   2.540 -0.9237 -0.0766  0.8714
 1340SOL    HW2 4148   0.958   2.350   2.460 -1.8995 -0.4141 -0.7266
 1341SOL     OW 4149   1.278   1.905   2.631  0.5646  0.4999 -0.4189
 1341SOL    HW1 4150   1.262   1.875   2.720  0.0851 -2.4611 -1.3622
 1341SOL    HW2 4151   1.373   1.896   2.619  0.8003  2.0696  0.1257
 1342SOL     OW 4152   2.242   0.554   3.206 -0.1333 -0.7526 -0.2309
 1342SOL    HW1 4153   2.291   0.627   3.169 -1.8627  0.1470 -0.8320
 1342SOL    HW2 4154   2.273   0.477   3.158  0.8798 -0.2624 -0.3793
 1343SOL     OW 4155   2.864   0.907   0.609 -0.7922 -0.5602  0.4124
 1343SOL    HW1 4156   2.819   0.988   0.630 -0.5376  0.2312 -1.8526
 1343SOL    HW2 4157   2.910   0.883   0.690  0.3710  2.3779  0.7398
 1344SOL     OW 4158   2.618   0.810   2.385 -0.3040 -0.3958 -0.2610
 1344SOL    HW1 4159   2.644   0.853   2.467  1.5290  0.3661 -1.1888
 1344SOL    HW2 4160   2.635   0.717   2.400 -1.5687 -0.4936  0.7665
 1345SOL     OW 4161   0.771   1.666   3.129  0.1280  0.0172 -0.2336
 1345SOL    HW1 4162   0.712   1.735   3.158  0.2773  0.6082 -1.2848
 1345SOL    HW2 4163   0.845   1.670   3.190  0.2494  0.9642 -0.4299
 1346SOL     OW 4164   0.054   0.928   2.495 -0.3640 -0.7288  0.2102
 1346SOL    HW1 4165   0.092   1.015   2.506  0.5264 -1.1575  0.6280
 1346SOL    HW2 4166  -0.037   0.944   2.472 -0.5730  0.3106  1.6424
 1347SOL     OW 4167   3.039   1.421   2.923  0.3640 -0.4716  0.2577
 1347SOL    HW1 4168   3.041   1.340   2.973  2.0000  1.4819  3.7200
 1347SOL    HW2 4169   2.963   1.469   2.956 -0.7339 -0.6049 -1.9203
 1348SOL     OW 4170   2.589   0.468   0.784  0.5251  0.7465 -0.0545
 1348SOL    HW1 4171   2.648   0.516   0.726 -0.0757  2.1073  0.4271
 1348SOL    HW2 4172   2.644   0.441   0.858  1.3058 -1.0303 -1.2172
 1349SOL     OW 4173   2.571   0.811   0.703 -0.3823 -0.4948 -0.2875
 1349SOL    HW1 4174   2.594   0.829   0.795  1.2481  0.7835 -0.8885
 1349SOL    HW2 4175   2.624   0.735   0.680  1.6920  1.0867 -1.0204
 1350SOL     OW 4176   1.567   2.603   3.408  0.1102 -0.2800 -0.0750
 1350SOL    HW1 4177   1.556   2.586   3.501 -0.3704 -0.9444 -0.2430
 1350SOL    HW2 4178   1.515   2.682   3.392  2.2112  1.3557  0.6745
 1351SOL     OW 4179   0.800   1.889   0.707  0.1035  0.5010 -0.6257
 1351SOL    HW1 4180   0.798   1.815   0.646 -2.7444 -0.5083  0.5341
 1351SOL    HW2 4181   0.886   1.882   0.749 -0.4872 -3.0534  0.3584
 1352SOL     OW 4182   1.942   3.229   0.085  0.1220 -0.0589  0.0901
 1352SOL    HW1 4183   1.932   3.304   0.026 -2.3581 -0.1420  0.3057
 1352SOL    HW2 4184   1.933   3.266   0.173 -0.2325 -0.4644  0.2312
 1353SOL     OW 4185   1.994   1.767   1.497 -0.0423  0.0736 -0.4280
 1353SOL    HW1 4186   1.929   1.699   1.480 -0.3636  0.3703 -0.3928
 1353SOL    HW2 4187   2.044   1.735   1.572 -1.2627  0.6372  0.6401
 1354SOL     OW 4188   0.109   0.498   3.066 -1.2175  0.7895  0.3188
 1354SOL    HW1 4189   0.172   0.464   3.003 -1.0031  2.4284 -0.4064
 1354SOL    HW2 4190   0.032   0.442   3.057  0.1333 -1.3685  1.3425
 1355SOL     OW 4191   3.239   2.063   2.224 -0.0928 -0.6942 -0.2797
 1355SOL    HW1 4192   3.251   2.043   2.131 -0.7578  2.0222 -1.0369
 1355SOL    HW2 4193   3.172   2.002   2.253 -1.2317 -0.3759 -2.1012
 1356SOL     OW 4194   0.804   1.882   3.361  0.4134  0.7823 -0.4497
 1356SOL    HW1 4195   0.717   1.880   3.322 -0.6600  0.3658  1.7955
 1356SOL    HW2 4196   0.824   1.975   3.372  0.1666  0.8759 -0.7874
 1357SOL     OW 4197   3.295   1.563   2.045  0.1035  0.1477  0.1160
 1357SOL    HW1 4198   3.322   1.474   2.026 -2.4664 -0.4030 -1.4039
 1357SOL    HW2 4199   3.220   1.553   2.105 -1.3277  1.1199 -1.4214
 1358SOL     OW 4200   1.525   2.239   0.364 -0.0013  0.1405  0.4225
 1358SOL    HW1 4201   1.534   2.299   0.290  0.3091  1.1874  1.2748
 1358SOL    HW2 4202   1.451   2.183   0.341  0.4699  0.0494 -0.9382
 1359SOL     OW 4203   0.237   0.898   0.714 -0.5266  0.0015  0.2085
 1359SOL    HW1 4204   0.276   0.861   0.634 -0.3484  0.4538  0.0796
 1359SOL    HW2 4205   0.257   0.991   0.708  1.3486 -0.2315  1.8192
 1360SOL     OW 4206   0.831   2.493   0.240 -0.0075 -0.4726 -0.4619
 1360SOL    HW1 4207   0.861   2.553   0.309  0.2490 -0.0530 -0.9354
 1360SOL    HW2 4208   0.748   2.530   0.210  0.5219  0.0965 -1.2874
 1361SOL     OW 4209   1.681   2.678   1.650 -0.0428  0.4801 -0.5635
 1361SOL    HW1 4210   1.596   2.717   1.630  0.7256  3.5099  1.4292
 1361SOL    HW2 4211   1.700   2.623   1.575 -3.1655  0.6779 -1.6587
 1362SOL     OW 4212   1.180   1.604   3.116  1.3253  0.1356 -0.1808
 1362SOL    HW1 4213   1.198   1.510   3.126  2.8065  0.5547  1.6313
 1362SOL    HW2 4214   1.111   1.622   3.179  1.8299  0.4466  0.2962
 1363SOL     OW 4215   2.658   1.019   3.165  0.0679 -0.0541 -0.0683
 1363SOL    HW1 4216   2.684   0.964   3.091 -2.0649  0.8619 -1.6009
 1363SOL    HW2 4217   2.575   0.982   3.194  0.8257 -0.3474  1.9103
 1364SOL     OW 4218   2.281   2.833   0.652  0.5527 -0.1279  0.1703
 1364SOL    HW1 4219   2.337   2.887   0.597  0.9727 -0.3071  0.4222
 1364SOL    HW2 4220   2.337   2.762   0.681  0.0848 -0.5297  0.0962
 1365SOL     OW 4221   3.045   2.479   1.744  0.4755  0.0453  0.2823
 1365SOL    HW1 4222   3.117   2.430   1.783  0.0795 -1.6533 -0.9909
 1365SOL    HW2 4223   3.013   2.423   1.673 -2.6548  0.3048  1.3095
 1366SOL     OW 4224   1.657   0.677   3.326  0.3272  0.0685 -0.0983
 1366SOL    HW1 4225   1.635   0.695   3.234 -0.9443  0.7010  0.3104
 1366SOL    HW2 4226   1.732   0.733   3.344  0.8018 -0.3051 -0.8293
 1367SOL     OW 4227   1.242   2.823   3.157 -0.5468 -0.1580  0.1792
 1367SOL    HW1 4228   1.330   2.786   3.158 -1.4121 -2.4476 -1.4945
 1367SOL    HW2 4229   1.216   2.825   3.065 -1.4854  2.5935  0.3816
 1368SOL     OW 4230   0.893   2.729   0.995 -0.2428 -0.1515  0.1444
 1368SOL    HW1 4231   0.945   2.782   0.935 -1.3898  0.0885 -0.6749
 1368SOL    HW2 4232   0.949   2.719   1.073  1.0867 -0.0760 -0.7596
 1369SOL     OW 4233   3.470   1.679   0.495 -0.0855 -0.8080 -0.0041
 1369SOL    HW1 4234   3.566   1.677   0.497 -0.0965 -1.9820  0.9662
 1369SOL    HW2 4235   3.447   1.642   0.410  0.3151  0.2052 -0.5680
 1370SOL     OW 4236   1.062   1.889   2.012  0.2900 -0.8653  0.6494
 1370SOL    HW1 4237   1.073   1.895   2.107  1.8414  1.8747  0.3930
 1370SOL    HW2 4238   0.976   1.848   2.000  0.4765 -2.1777  3.1802
 1371SOL     OW 4239   3.382   0.779   0.739 -0.2585 -0.4485  0.4163
 1371SOL    HW1 4240   3.393   0.804   0.647  0.5255 -0.9017  0.3786
 1371SOL    HW2 4241   3.465   0.802   0.780  0.8544 -3.6182  0.2068
 1372SOL     OW 4242   0.443   0.415   3.084  0.1629 -0.3461  0.0313
 1372SOL    HW1 4243   0.448   0.346   3.018 -1.1778 -0.8534  0.4318
 1372SOL    HW2 4244   0.452   0.497   3.034  2.2553 -0.7751 -0.3916
 1373SOL     OW 4245   2.128   1.522   2.762 -0.0587  1.2187 -0.3095
 1373SOL    HW1 4246   2.137   1.448   2.702  0.7627  1.4101 -0.4328
 1373SOL    HW2 4247   2.136   1.599   2.705  0.5412  1.4023  0.0165
 1374SOL     OW 4248   0.166   2.494   2.569 -0.0612  0.1368  0.0608
 1374SOL    HW1 4249   0.214   2.531   2.495  0.7568 -2.0426 -0.5768
 1374SOL    HW2 4250   0.131   2.570   2.616 -0.1785  1.5975 -2.2559
 1375SOL     OW 4251   2.793   0.826   1.624  0.2328 -0.1199 -0.2326
 1375SOL    HW1 4252   2.842   0.880   1.686 -0.8364  0.8407 -0.1883
 1375SOL    HW2 4253   2.715   0.800   1.672  0.6819 -1.6464 -0.2944
 1376SOL     OW 4254   0.783   3.337   1.551 -0.2914 -0.4565  0.1999
 1376SOL    HW1 4255   0.769   3.350   1.457 -1.9620  1.2430  0.6177
 1376SOL    HW2 4256   0.716   3.391   1.592  0.6868 -0.8273  2.3879
 1377SOL     OW 4257   3.688   1.801   2.684 -0.1278  0.3010 -0.4538
 1377SOL    HW1 4258   3.604   1.775   2.647  0.1102 -0.5996 -0.3687
 1377SOL    HW2 4259   3.673   1.890   2.716 -1.1355  0.0474 -0.1801
 1378SOL     OW 4260   3.006   1.152   0.558 -0.3713 -0.2764  0.0695
 1378SOL    HW1 4261   3.040   1.063   0.544  0.4658  0.1530 -0.8128
 1378SOL    HW2 4262   2.932   1.141   0.617  1.0324 -1.3237  1.7417
 1379SOL     OW 4263   1.923   2.317   2.000  0.3755 -0.0705  0.1519
 1379SOL    HW1 4264   1.842   2.297   2.046 -0.1635 -2.9963 -1.8357
 1379SOL    HW2 4265   1.992   2.283   2.057 -0.1972 -2.4150 -0.4717
 1380SOL     OW 4266   0.744   3.041   0.868  0.6657  0.8015  0.0517
 1380SOL    HW1 4267   0.768   3.059   0.958  0.1072 -0.4691  0.4785
 1380SOL    HW2 4268   0.796   2.964   0.844 -1.7408 -1.0800  0.5118
 1381SOL     OW 4269   1.382   3.032   1.704 -0.0924  0.5886  0.2343
 1381SOL    HW1 4270   1.448   3.070   1.762  1.1366 -3.0410  1.5505
 1381SOL    HW2 4271   1.301   3.032   1.755  0.0139  0.9590  0.4052
 1382SOL     OW 4272   1.259   2.716   3.515  0.3792 -0.3897 -0.1747
 1382SOL    HW1 4273   1.270   2.749   3.605 -1.2590 -0.5909  0.1367
 1382SOL    HW2 4274   1.242   2.794   3.463 -1.4994 -0.4919  0.2160
 1383SOL     OW 4275   0.206   2.174   2.022 -0.1866 -0.4750 -0.6233
 1383SOL    HW1 4276   0.174   2.248   1.970  0.4148  0.3699  0.1804
 1383SOL    HW2 4277   0.195   2.098   1.964 -0.5205  0.2772 -1.5799
 1384SOL     OW 4278   0.577   1.207   3.243  0.0129 -0.3691 -0.4230
 1384SOL    HW1 4279   0.659   1.255   3.254  0.2572 -0.8544 -0.1282
 1384SOL    HW2 4280   0.604   1.116   3.233 -0.6113 -0.9584  2.4759
 1385SOL     OW 4281   0.093   0.094   0.930  0.0893 -0.2014 -0.1347
 1385SOL    HW1 4282   0.159   0.077   0.863 -1.2750  0.2178 -1.6470
 1385SOL    HW2 4283   0.036   0.016   0.929  0.5972 -0.6281  1.2523
 1386SOL     OW 4284   1.173   2.133   3.301 -0.0600  0.1462 -0.8366
 1386SOL    HW1 4285   1.166   2.039   3.288  1.1547  0.1712 -1.8745
 1386SOL    HW2 4286   1.266   2.148   3.320 -0.6587  0.8337  2.2256
 1387SOL     OW 4287   1.699   1.673   0.136 -0.5676 -0.3106  0.3888
 1387SOL    HW1 4288   1.784   1.641   0.164  0.9466  2.1006 -1.1461
 1387SOL    HW2 4289   1.699   1.663   0.041 -1.1645  1.4708  0.1499
 1388SOL     OW 4290   0.156   1.830   0.262 -0.0797 -0.2340 -0.4170
 1388SOL    HW1 4291   0.089   1.888   0.300  0.6749  0.2695  0.1626
 1388SOL    HW2 4292   0.118   1.802   0.179 -0.6475  0.7445 -0.5016
 1389SOL     OW 4293   2.384   3.340   0.227  0.3633  0.2087 -0.0613
 1389SOL    HW1 4294   2.297   3.365   0.259 -0.7544 -1.6696 -1.4559
 1389SOL    HW2 4295   2.440   3.414   0.250 -0.9643  0.3227  3.3761
 1390SOL     OW 4296   3.152   3.086   0.540 -0.8206  0.7233  0.6606
 1390SOL    HW1 4297   3.172   3.108   0.632 -0.7628 -0.6231  0.9840
 1390SOL    HW2 4298   3.067   3.043   0.544 -1.2811  1.5313 -0.0602
 1391SOL     OW 4299   1.542   2.471   0.247  0.1344 -0.4861 -0.4697
 1391SOL    HW1 4300   1.454   2.461   0.212 -0.4691 -0.1713  0.8614
 1391SOL    HW2 4301   1.596   2.490   0.171 -0.5646 -2.6395 -1.6132
 1392SOL     OW 4302   2.950   2.382   2.074 -0.3169 -0.3570 -0.6481
 1392SOL    HW1 4303   2.870   2.376   2.022  0.5769 -3.1841 -1.9004
 1392SOL    HW2 4304   3.011   2.324   2.030  2.4015  1.5115  0.4063
 1393SOL     OW 4305   3.704   0.319   0.831 -0.2184  0.1116 -0.3643
 1393SOL    HW1 4306   3.688   0.370   0.910 -1.9475 -0.0999 -0.5492
 1393SOL    HW2 4307   3.695   0.228   0.860  0.4655 -0.0205 -0.5436
 1394SOL     OW 4308   1.017   2.040   2.525  0.5464 -0.0384 -0.4875
 1394SOL    HW1 4309   1.111   2.023   2.527  0.5361 -0.0503 -0.0461
 1394SOL    HW2 4310   0.994   2.034   2.432  1.0678  0.4508 -0.6539
 1395SOL     OW 4311   2.182   3.162   2.491 -0.3006 -0.4836  0.2947
 1395SOL    HW1 4312   2.274   3.144   2.510 -0.3001 -1.7998 -0.8216
 1395SOL    HW2 4313   2.178   3.172   2.396 -1.3574 -0.6852  0.3060
 1396SOL     OW 4314   0.608   1.694   1.381 -0.4322 -0.4373  0.6665
 1396SOL    HW1 4315   0.600   1.624   1.316 -0.4434 -0.3064  0.5269
 1396SOL    HW2 4316   0.702   1.702   1.396 -0.4397 -0.5921  0.8033
 1397SOL     OW 4317   1.062   1.486   1.751  0.1057  0.2464  0.0313
 1397SOL    HW1 4318   1.120   1.426   1.704  0.7054 -1.5580  2.8152
 1397SOL    HW2 4319   0.978   1.440   1.754  0.6112 -0.7023  2.3204
 1398SOL     OW 4320   0.249   1.034   1.957  0.0870  0.4806 -0.2379
 1398SOL    HW1 4321   0.315   1.057   1.891 -0.5203 -0.6427 -1.2777
 1398SOL    HW2 4322   0.300   1.001   2.031  0.7322 -0.2229 -0.9643
 1399SOL     OW 4323   1.024   1.944   0.182  0.1110 -0.3328 -0.1144
 1399SOL    HW1 4324   0.981   1.862   0.161 -0.9596  0.4932 -1.2534
 1399SOL    HW2 4325   1.066   1.971   0.100 -0.0014  0.5195  0.1020
 1400SOL     OW 4326   2.572   3.023   0.735 -0.0509 -0.0216 -0.0495
 1400SOL    HW1 4327   2.564   2.971   0.815  1.2957  1.0853  0.8657
 1400SOL    HW2 4328   2.556   2.961   0.664 -1.3238 -1.0329  1.0643
 1401SOL     OW 4329   2.574   1.926   0.722 -0.4378 -0.1879  0.1245
 1401SOL    HW1 4330   2.535   1.926   0.810  2.6611  0.7202  1.6471
 1401SOL    HW2 4331   2.584   2.019   0.701  1.1773 -0.3784 -0.0267
 1402SOL     OW 4332   2.014   3.626   0.155  0.4029  0.2407  0.2724
 1402SOL    HW1 4333   1.954   3.630   0.080  0.5828 -0.1426  0.1043
 1402SOL    HW2 4334   1.963   3.659   0.229 -0.1968 -0.5686  0.2401
 1403SOL     OW 4335   3.591   1.299   0.335 -0.0812 -0.3957  0.4327
 1403SOL    HW1 4336   3.635   1.368   0.286 -0.5734  1.2670  2.2207
 1403SOL    HW2 4337   3.497   1.315   0.321 -0.2101 -1.4687 -0.0960
 1404SOL     OW 4338   0.437   2.392   3.029  0.0890 -0.0495 -0.3338
 1404SOL    HW1 4339   0.484   2.315   2.999  0.2852 -0.1376  0.1903
 1404SOL    HW2 4340   0.409   2.371   3.118 -1.6012 -0.2901 -0.8866
 1405SOL     OW 4341   1.174   0.021   2.449  0.9087 -0.3275 -0.5239
 1405SOL    HW1 4342   1.163   0.114   2.432  1.3984  0.0864  1.1674
 1405SOL    HW2 4343   1.201  -0.016   2.365 -1.7365  0.5714 -1.8839
 1406SOL     OW 4344   2.900   2.071   3.620  0.5917 -0.4324 -0.4103
 1406SOL    HW1 4345   2.955   2.134   3.573  1.7586 -1.5369 -0.5690
 1406SOL    HW2 4346   2.819   2.067   3.569  1.3017 -0.5695 -1.5555
 1407SOL     OW 4347   3.535   0.309   1.174 -0.2323 -0.0596  0.4046
 1407SOL    HW1 4348   3.546   0.353   1.090  0.4889 -0.3923  0.3188
 1407SOL    HW2 4349   3.621   0.273   1.193 -0.6718 -0.9306  0.7611
 1408SOL     OW 4350   1.432   0.644   3.056 -0.2552  0.4348 -0.0306
 1408SOL    HW1 4351   1.524   0.660   3.035  0.3971 -2.0257  0.6037
 1408SOL    HW2 4352   1.433   0.561   3.104 -2.8796 -0.0061 -0.6198
 1409SOL     OW 4353   2.974   2.111   2.944  0.0309  0.4926  0.5098
 1409SOL    HW1 4354   3.037   2.101   2.873  0.9990 -1.2281  1.5268
 1409SOL    HW2 4355   2.927   2.027   2.946 -0.8135  0.9603  1.1431
 1410SOL     OW 4356   2.526   1.095   0.705  0.2703 -0.9127 -0.1209
 1410SOL    HW1 4357   2.546   1.015   0.658  0.3892 -0.8753 -0.1330
 1410SOL    HW2 4358   2.431   1.105   0.695  0.1123 -1.5479  0.6765
 1411SOL     OW 4359   1.501   1.915   3.226 -0.1886 -0.2239 -0.4272
 1411SOL    HW1 4360   1.441   1.946   3.158 -1.5929 -1.8564 -0.0114
 1411SOL    HW2 4361   1.465   1.952   3.307  0.6808  0.5843 -0.3901
 1412SOL     OW 4362   2.788   1.571   0.889  0.0559 -0.2754 -0.0176
 1412SOL    HW1 4363   2.777   1.664   0.908  0.1571  0.0998 -1.6633
 1412SOL    HW2 4364   2.868   1.546   0.935  1.3191  1.0356 -1.4019
 1413SOL     OW 4365   3.123   1.330   1.406 -0.1639  0.0620 -0.2099
 1413SOL    HW1 4366   3.071   1.300   1.481 -2.2326 -0.4127 -1.7510
 1413SOL    HW2 4367   3.093   1.419   1.390 -0.3419 -0.1278 -0.9630
 1414SOL     OW 4368   1.819   0.423   1.135  0.0859 -0.3035 -0.2037
 1414SOL    HW1 4369   1.765   0.494   1.169 -0.0383 -1.1212  1.4034
 1414SOL    HW2 4370   1.758   0.370   1.083 -0.2007 -0.1498 -0.0293
 1415SOL     OW 4371   1.686   0.681   3.011  0.2765  0.1975  0.0750
 1415SOL    HW1 4372   1.725   0.765   2.984  1.5537 -0.5425 -0.4997
 1415SOL    HW2 4373   1.720   0.618   2.947  2.0560 -1.3529  2.4162
 1416SOL     OW 4374   2.347   0.633   2.447  0.3610 -0.5720 -0.0056
 1416SOL    HW1 4375   2.306   0.615   2.362 -0.1820 -0.5250  0.2381
 1416SOL    HW2 4376   2.440   0.617   2.433  0.6272  1.6745 -1.2366
 1417SOL     OW 4377   2.513   2.587   3.432  0.3235 -0.0153  0.6729
 1417SOL    HW1 4378   2.489   2.621   3.346  0.3714  1.2047  1.1148
 1417SOL    HW2 4379   2.575   2.517   3.415  0.6415  0.4879 -0.2713
 1418SOL     OW 4380   2.505   1.461   2.880 -0.1655 -0.7170 -0.6253
 1418SOL    HW1 4381   2.459   1.459   2.964 -0.3726 -1.3122 -0.7424
 1418SOL    HW2 4382   2.534   1.370   2.867 -0.1889 -0.6428 -1.2216
 1419SOL     OW 4383   3.046   2.880   1.914 -0.5233 -0.0621  0.5737
 1419SOL    HW1 4384   3.094   2.805   1.879 -2.4151  0.1152 -2.8169
 1419SOL    HW2 4385   3.107   2.954   1.905  0.1744 -0.6164  0.7253
 1420SOL     OW 4386   2.435   3.219   0.003  0.2566  0.6021  0.0789
 1420SOL    HW1 4387   2.413   3.275   0.077  0.5188  1.4874 -0.4964
 1420SOL    HW2 4388   2.403   3.266  -0.074 -1.0680 -0.8503 -0.3042
 1421SOL     OW 4389   1.928   1.092   2.245  0.3154  0.2783 -0.0125
 1421SOL    HW1 4390   1.961   1.137   2.323  2.0627 -3.1361  1.4641
 1421SOL    HW2 4391   1.862   1.031   2.279 -0.6102  0.3595 -1.5835
 1422SOL     OW 4392   1.211   3.457   2.912  0.5073  0.1819  0.1201
 1422SOL    HW1 4393   1.207   3.419   3.000 -0.1177 -0.3805 -0.1349
 1422SOL    HW2 4394   1.130   3.507   2.904 -1.0536 -2.3332 -1.2238
 1423SOL     OW 4395   1.339   1.649   1.785  0.1965 -0.4876 -0.1605
 1423SOL    HW1 4396   1.268   1.585   1.792  1.5342 -1.9629  0.4016
 1423SOL    HW2 4397   1.310   1.722   1.840 -0.6815 -1.2468  0.4313
 1424SOL     OW 4398   1.750   3.355   1.792  0.2193 -0.2169  0.1230
 1424SOL    HW1 4399   1.805   3.417   1.839  0.3327 -0.0924 -0.1679
 1424SOL    HW2 4400   1.812   3.308   1.735  0.2050 -0.9040  0.6614
 1425SOL     OW 4401   1.078   2.627   1.563 -0.1153 -0.0628  0.2483
 1425SOL    HW1 4402   1.019   2.606   1.635  0.6374  1.2762  1.3082
 1425SOL    HW2 4403   1.028   2.685   1.506 -0.3473 -0.2255  0.2884
 1426SOL     OW 4404   2.936  -0.018   1.129 -0.1438  0.0111  0.3619
 1426SOL    HW1 4405   2.962  -0.001   1.039 -1.6514  1.2713  0.1174
 1426SOL    HW2 4406   2.986   0.046   1.181  0.8310 -0.8092  0.4633
 1427SOL     OW 4407   1.446   1.847   1.306  0.0266 -0.1088  0.0369
 1427SOL    HW1 4408   1.361   1.829   1.267  1.1391 -1.3622 -2.0464
 1427SOL    HW2 4409   1.454   1.942   1.305 -0.8407 -0.0257 -0.9931
 1428SOL     OW 4410   2.420   0.005   2.817 -0.4710  0.1826  0.1814
 1428SOL    HW1 4411   2.365   0.052   2.754 -0.0356  0.1091 -0.2601
 1428SOL    HW2 4412   2.394   0.039   2.902  0.6423  2.1162 -0.1842
 1429SOL     OW 4413   1.728   2.527   3.709 -0.4489  0.2056  0.1664
 1429SOL    HW1 4414   1.643   2.563   3.683 -1.4205 -1.1835  1.3287
 1429SOL    HW2 4415   1.743   2.454   3.649  0.4212  1.0109 -0.6540
 1430SOL     OW 4416   0.677   1.014   3.534 -0.5078 -0.0319  0.5581
 1430SOL    HW1 4417   0.768   1.023   3.563 -0.2423 -0.7027 -0.0309
 1430SOL    HW2 4418   0.673   0.926   3.496 -1.5906 -0.2851  1.2331
 1431SOL     OW 4419   2.229   2.680   2.766 -0.3877  0.6235 -0.2263
 1431SOL    HW1 4420   2.172   2.636   2.830 -0.2466  0.4186 -0.2400
 1431SOL    HW2 4421   2.230   2.621   2.691  0.5908  0.1608  0.1278
 1432SOL     OW 4422   3.627   1.142   3.009 -0.1660  0.0736 -0.2731
 1432SOL    HW1 4423   3.597   1.186   2.929 -0.1173 -1.2059 -1.0248
 1432SOL    HW2 4424   3.721   1.134   2.998 -0.4259 -2.4637 -1.3909
 1433SOL     OW 4425   2.628   1.554   3.206  0.1368 -0.1011  0.4345
 1433SOL    HW1 4426   2.694   1.518   3.147  0.1360 -1.4667  1.2205
 1433SOL    HW2 4427   2.561   1.486   3.212 -0.1934  0.2970  1.4540
 1434SOL     OW 4428   0.812   0.144   0.059 -0.1718 -0.5476 -0.1553
 1434SOL    HW1 4429   0.748   0.192   0.112 -0.2136 -1.1742  0.3841
 1434SOL    HW2 4430   0.848   0.209  -0.001  0.8551  0.5442  1.5390
 1435SOL     OW 4431   1.805   2.712   1.001 -1.0351 -0.1768 -0.0699
 1435SOL    HW1 4432   1.754   2.632   1.004  1.7434 -2.0731  0.2005
 1435SOL    HW2 4433   1.864   2.700   0.926  0.7153  0.7281  1.0858
 1436SOL     OW 4434   0.794   1.794   2.088 -0.4354 -0.4263  0.2400
 1436SOL    HW1 4435   0.787   1.835   2.002 -0.4188 -1.3729 -0.2172
 1436SOL    HW2 4436   0.704   1.771   2.112 -0.7191  1.5264  1.3518
 1437SOL     OW 4437   2.279   3.312   3.468  0.2155 -0.3510 -0.2436
 1437SOL    HW1 4438   2.329   3.264   3.402  0.0058 -1.2724  0.2482
 1437SOL    HW2 4439   2.263   3.398   3.429  1.2295 -0.4224 -0.8503
 1438SOL     OW 4440   2.122   2.215   1.809 -0.0671  0.1408  0.3085
 1438SOL    HW1 4441   2.166   2.192   1.891 -0.0808 -2.6786 -0.3621
 1438SOL    HW2 4442   2.044   2.264   1.836  1.4364  1.8475  1.7459
 1439SOL     OW 4443   1.747   0.556   0.284  0.1939  0.3740  0.0474
 1439SOL    HW1 4444   1.699   0.582   0.362  2.2704  1.5199  1.0481
 1439SOL    HW2 4445   1.835   0.593   0.297  0.7396  0.2058 -2.6340
 1440SOL     OW 4446   1.903   0.790   3.318  0.5648  0.8006  0.3619
 1440SOL    HW1 4447   1.896   0.881   3.288 -0.3274  1.4226  2.2466
 1440SOL    HW2 4448   1.955   0.746   3.252 -0.7993  2.1657 -1.7453
 1441SOL     OW 4449   2.461   0.298   2.277 -0.1315  0.2020 -0.0706
 1441SOL    HW1 4450   2.397   0.353   2.230 -0.8647 -2.1012 -1.9395
 1441SOL    HW2 4451   2.533   0.288   2.215  0.4115 -0.1946  0.6178
 1442SOL     OW 4452   3.418   1.972   0.470  0.3783 -0.3571 -0.1668
 1442SOL    HW1 4453   3.437   1.879   0.461  0.1857 -0.1964 -2.9084
 1442SOL    HW2 4454   3.502   2.011   0.495  1.2903 -0.9113 -2.1626
 1443SOL     OW 4455   1.754   1.669   3.577  0.2128  0.3476 -0.0904
 1443SOL    HW1 4456   1.818   1.676   3.507 -0.2214  1.4853 -0.4068
 1443SOL    HW2 4457   1.739   1.760   3.605 -1.1337  0.1089  0.0640
 1444SOL     OW 4458   2.488   3.241   2.411 -0.0386  0.0872  0.0632
 1444SOL    HW1 4459   2.480   3.170   2.475 -1.1668  0.7753  0.7167
 1444SOL    HW2 4460   2.559   3.296   2.445 -2.3735  1.9557  2.3242
 1445SOL     OW 4461   1.405   2.190   0.050 -0.4250  0.0613 -0.2509
 1445SOL    HW1 4462   1.332   2.201  -0.010 -1.6018 -2.6481  0.5255
 1445SOL    HW2 4463   1.374   2.228   0.133 -0.7327 -0.5192 -0.0935
 1446SOL     OW 4464   1.502   0.586   1.731  0.0537  0.4032 -0.0389
 1446SOL    HW1 4465   1.542   0.633   1.805 -0.2451  0.8003 -0.1214
 1446SOL    HW2 4466   1.411   0.574   1.758 -0.2046  1.0615 -0.5707
 1447SOL     OW 4467   1.357   0.447   3.221 -0.2920 -0.2163 -0.4883
 1447SOL    HW1 4468   1.384   0.493   3.300  0.2526 -1.4394  0.0639
 1447SOL    HW2 4469   1.270   0.483   3.201 -1.2111 -1.0585  1.6478
 1448SOL     OW 4470   0.805   0.040   1.984 -0.0544 -0.3411 -0.3600
 1448SOL    HW1 4471   0.717   0.064   2.013  0.4519  1.0907  0.0699
 1448SOL    HW2 4472   0.827  -0.038   2.036 -0.1530  0.6977  1.3001
 1449SOL     OW 4473   3.538   1.395   1.848  0.9401 -0.0181  0.5698
 1449SOL    HW1 4474   3.501   1.368   1.764  1.8652  0.0836  0.1205
 1449SOL    HW2 4475   3.492   1.342   1.913  0.9136 -0.8157 -0.0844
 1450SOL     OW 4476   0.370   2.248   2.415  0.3810  0.2018  0.1289
 1450SOL    HW1 4477   0.388   2.181   2.348  1.4755  0.5338  0.0714
 1450SOL    HW2 4478   0.456   2.273   2.447 -0.0038  1.7114  0.0364
 1451SOL     OW 4479   0.407   1.115   1.367  0.3093 -0.0232 -0.3071
 1451SOL    HW1 4480   0.419   1.030   1.410  0.3627  0.8016  1.4271
 1451SOL    HW2 4481   0.490   1.132   1.323 -0.0107 -1.2441 -1.4551
 1452SOL     OW 4482   1.879   2.613   2.505 -0.2267 -0.6665 -0.0360
 1452SOL    HW1 4483   1.872   2.706   2.525  1.1059 -0.5183 -0.1956
 1452SOL    HW2 4484   1.861   2.569   2.588  0.2209 -0.2248  0.3009
 1453SOL     OW 4485   2.094   2.265   3.625  0.1332  0.2950  0.2589
 1453SOL    HW1 4486   2.018   2.293   3.573  1.9664  0.3452 -2.5980
 1453SOL    HW2 4487   2.163   2.328   3.603  1.7389 -1.1940  0.7869
 1454SOL     OW 4488   2.609   2.780   1.933  0.2590  0.7296 -0.0089
 1454SOL    HW1 4489   2.603   2.825   1.848  1.0029  1.2965  0.2325
 1454SOL    HW2 4490   2.695   2.738   1.932  0.2345  0.6691  0.4383
 1455SOL     OW 4491   2.638   3.259   2.833  0.5316  0.2875 -0.1840
 1455SOL    HW1 4492   2.713   3.239   2.777  0.8214 -2.3840  1.0355
 1455SOL    HW2 4493   2.676   3.288   2.916  0.3824 -2.6060  0.9985
 1456SOL     OW 4494   2.900   0.679   2.180  0.0756 -0.5587  0.2001
 1456SOL    HW1 4495   2.860   0.595   2.201 -0.8013 -0.3509 -0.5774
 1456SOL    HW2 4496   2.991   0.657   2.158 -0.1422 -1.3023  0.0089
 1457SOL     OW 4497   0.212   1.087   1.070 -0.2584 -0.2098  0.5325
 1457SOL    HW1 4498   0.286   1.093   1.131  0.5994 -0.9802 -0.3951
 1457SOL    HW2 4499   0.240   1.022   1.006 -0.8194  1.1194 -1.1179
 1458SOL     OW 4500   0.892   1.528   2.089 -0.1032 -0.2675 -0.4492
 1458SOL    HW1 4501   0.888   1.621   2.069  0.9864 -0.1697 -0.2838
 1458SOL    HW2 4502   0.858   1.521   2.179  2.3784  0.3844  0.6352
 1459SOL     OW 4503   1.051   3.631   0.640 -0.6776  0.0476  0.4251
 1459SOL    HW1 4504   1.126   3.620   0.698 -0.9046 -2.6803  0.3458
 1459SOL    HW2 4505   1.074   3.582   0.561 -0.7134  3.0177 -1.5702
 1460SOL     OW 4506   3.439   3.502   1.396  0.6767 -0.5038 -0.4901
 1460SOL    HW1 4507   3.439   3.597   1.388 -0.1291 -0.1948  2.1925
 1460SOL    HW2 4508   3.349   3.476   1.374  0.5890 -0.5083 -0.1338
 1461SOL     OW 4509   2.999   0.804   1.462  0.0577 -0.0249  0.1984
 1461SOL    HW1 4510   2.976   0.726   1.411  0.0926 -0.5158  0.9155
 1461SOL    HW2 4511   2.931   0.810   1.528  1.3852 -0.9194  1.7139
 1462SOL     OW 4512   1.660   1.284   0.698  0.1379  0.0062 -0.1098
 1462SOL    HW1 4513   1.741   1.325   0.727 -1.2944  2.9496  0.1810
 1462SOL    HW2 4514   1.624   1.244   0.777  0.4119  0.3526  0.1947
 1463SOL     OW 4515   3.212   1.580   0.590  0.2550 -0.0759 -0.4153
 1463SOL    HW1 4516   3.119   1.593   0.569 -0.1391 -3.1784 -1.1158
 1463SOL    HW2 4517   3.257   1.646   0.537 -1.4039 -0.6782 -2.7577
 1464SOL     OW 4518   0.403   0.637   2.920 -0.6110 -0.1855  0.6430
 1464SOL    HW1 4519   0.313   0.668   2.930 -0.3657 -0.2613  4.2661
 1464SOL    HW2 4520   0.428   0.667   2.833 -4.2300 -0.5350 -0.7144
 1465SOL     OW 4521   0.438   2.750   2.831 -0.6022  0.5094 -0.0724
 1465SOL    HW1 4522   0.455   2.667   2.786  0.5835  0.4718  0.4051
 1465SOL    HW2 4523   0.359   2.733   2.883 -1.0880  0.0767 -0.9270
 1466SOL     OW 4524   0.596   0.232   1.474  0.3791 -0.2557  0.3422
 1466SOL    HW1 4525   0.671   0.215   1.532  1.9144  0.3259 -1.3728
 1466SOL    HW2 4526   0.587   0.152   1.422 -0.3117 -0.3800  0.6415
 1467SOL     OW 4527   1.752   2.453   3.258  0.1657  0.2465  0.4113
 1467SOL    HW1 4528   1.727   2.456   3.166  0.6481  0.5845  0.2926
 1467SOL    HW2 4529   1.694   2.516   3.300 -0.9725 -0.8532  0.5678
 1468SOL     OW 4530   2.545   2.375   2.223  0.4502  0.2520 -0.3193
 1468SOL    HW1 4531   2.500   2.291   2.224  0.0268  0.4782  0.3940
 1468SOL    HW2 4532   2.474   2.440   2.226  0.7510  0.6488 -1.2779
 1469SOL     OW 4533   0.954   1.593   0.807  0.3417 -0.3893 -0.2549
 1469SOL    HW1 4534   0.961   1.503   0.838  2.6733  0.0410  0.7189
 1469SOL    HW2 4535   0.863   1.618   0.823  0.5668 -1.3092  3.2051
 1470SOL     OW 4536   0.664   1.511   2.297 -0.8780 -0.4339 -0.4579
 1470SOL    HW1 4537   0.601   1.504   2.368 -3.5096  0.5758 -2.5066
 1470SOL    HW2 4538   0.613   1.546   2.223  2.3062  1.3554 -2.0183
 1471SOL     OW 4539   0.646   2.094   0.699  0.4168 -0.1069 -0.2608
 1471SOL    HW1 4540   0.665   2.163   0.636  0.6380 -0.0744 -0.1581
 1471SOL    HW2 4541   0.703   2.022   0.674 -1.5936 -1.2371 -1.9716
 1472SOL     OW 4542   2.684   1.130   3.551  0.2646 -0.6063  0.0859
 1472SOL    HW1 4543   2.626   1.132   3.627  1.2653  0.1391  0.8573
 1472SOL    HW2 4544   2.760   1.080   3.580  2.2431  2.5503  0.8343
 1473SOL     OW 4545   0.038   2.731   3.582  0.5258  0.8281 -0.1534
 1473SOL    HW1 4546  -0.052   2.758   3.600  0.5938  0.5579  0.6221
 1473SOL    HW2 4547   0.030   2.670   3.508  0.0958  0.9380 -0.2016
 1474SOL     OW 4548   0.562   3.627   0.619 -0.3446 -0.5529 -0.2089
 1474SOL    HW1 4549   0.621   3.576   0.563 -0.7961  0.0947 -1.3147
 1474SOL    HW2 4550   0.561   3.714   0.579 -0.4245  0.0355  1.0218
 1475SOL     OW 4551   0.754   3.440   2.729 -0.3092 -0.4398  0.1496
 1475SOL    HW1 4552   0.702   3.508   2.771  0.9926 -0.6736  2.2875
 1475SOL    HW2 4553   0.695   3.401   2.664 -1.4491  1.9303 -0.3525
 1476SOL     OW 4554   3.070   0.835   3.550 -0.2067  0.1796 -0.4077
 1476SOL    HW1 4555   2.986   0.869   3.580 -0.1473 -0.6919  0.8429
 1476SOL    HW2 4556   3.088   0.883   3.469 -2.0382  0.1719 -0.8619
 1477SOL     OW 4557   3.439   1.121   3.196 -0.5360  0.4717 -0.1311
 1477SOL    HW1 4558   3.509   1.130   3.131 -0.8968  2.5076 -0.2922
 1477SOL    HW2 4559   3.365   1.170   3.159 -1.3302  0.1826  1.0144
 1478SOL     OW 4560   2.400   0.558   0.615  0.3666 -0.0915  0.3554
 1478SOL    HW1 4561   2.427   0.505   0.690 -2.5017  0.5909  2.0154
 1478SOL    HW2 4562   2.459   0.633   0.617  1.3880 -0.8709  0.8742
 1479SOL     OW 4563   2.085   0.181   1.614  0.4367  0.2336 -0.2907
 1479SOL    HW1 4564   2.138   0.160   1.537  0.9697 -1.3061  0.4566
 1479SOL    HW2 4565   2.084   0.100   1.665 -0.7288  0.9327  0.8450
 1480SOL     OW 4566   2.196   2.657   1.311 -0.3248  0.3299 -0.1448
 1480SOL    HW1 4567   2.175   2.637   1.220 -0.3245  0.8775 -0.2682
 1480SOL    HW2 4568   2.152   2.589   1.361  1.1807 -1.0788 -0.6459
 1481SOL     OW 4569   0.795   0.870   1.405 -0.1862 -0.2450  0.0403
 1481SOL    HW1 4570   0.731   0.822   1.354 -1.2151 -0.0024  1.0570
 1481SOL    HW2 4571   0.840   0.926   1.341 -0.0937 -1.3438 -0.8833
 1482SOL     OW 4572   3.080   1.666   1.458 -0.3712 -0.4434 -0.4408
 1482SOL    HW1 4573   2.988   1.688   1.445 -0.2522  1.5922  1.5737
 1482SOL    HW2 4574   3.119   1.672   1.371 -1.5692  1.6489 -0.8958
 1483SOL     OW 4575   1.255   1.141   0.758 -0.3516  0.3566  0.4103
 1483SOL    HW1 4576   1.205   1.075   0.806 -0.5789 -0.0547 -0.3657
 1483SOL    HW2 4577   1.307   1.186   0.825 -2.0938  1.1129  1.3202
 1484SOL     OW 4578   3.075   1.853   2.359 -0.4816  0.7346 -0.1144
 1484SOL    HW1 4579   3.033   1.804   2.289 -1.4715 -0.0173  0.9635
 1484SOL    HW2 4580   3.165   1.819   2.362 -1.2098 -1.2906  0.7842
 1485SOL     OW 4581   3.054   1.782   0.325  0.5148 -0.2607 -0.2803
 1485SOL    HW1 4582   3.044   1.744   0.412 -0.1776  0.7887  0.1200
 1485SOL    HW2 4583   3.025   1.713   0.265  0.2037 -0.6977  0.3641
 1486SOL     OW 4584   2.931   3.129   1.591 -0.7547  0.0130  0.2977
 1486SOL    HW1 4585   2.886   3.197   1.641 -0.8126  0.7487 -0.7306
 1486SOL    HW2 4586   2.898   3.047   1.627 -0.7704  0.5229  1.4748
 1487SOL     OW 4587   3.306   2.822   1.359  0.1457 -0.6055 -0.5339
 1487SOL    HW1 4588   3.249   2.886   1.402  2.7478  2.3801 -1.1294
 1487SOL    HW2 4589   3.393   2.838   1.396  1.9910  0.1808 -4.5832
 1488SOL     OW 4590   3.058   0.177   2.597  0.8228 -0.0303  0.3578
 1488SOL    HW1 4591   2.972   0.173   2.555  1.3635  1.2579 -0.9578
 1488SOL    HW2 4592   3.062   0.264   2.637  1.0483 -0.5513  1.5191
 1489SOL     OW 4593   3.372   1.959   2.689  0.3834 -0.4774 -0.6567
 1489SOL    HW1 4594   3.357   2.038   2.638 -2.4227 -1.9370 -2.3035
 1489SOL    HW2 4595   3.374   1.989   2.780  1.0353  1.6222 -1.3108
 1490SOL     OW 4596   1.366   2.407   0.976 -0.1586  0.3295  0.1252
 1490SOL    HW1 4597   1.416   2.436   0.900 -2.0387  2.3050 -0.4430
 1490SOL    HW2 4598   1.433   2.385   1.041  1.5131 -1.4336 -1.9944
 1491SOL     OW 4599   2.681   2.616   1.574  0.0422  0.2253  0.3212
 1491SOL    HW1 4600   2.690   2.538   1.628  0.0940 -1.9136 -2.5480
 1491SOL    HW2 4601   2.588   2.618   1.551  0.5024 -0.6115 -1.7786
 1492SOL     OW 4602   0.470   3.604   0.299 -0.5880  0.2954 -0.6883
 1492SOL    HW1 4603   0.416   3.673   0.338 -0.6275  0.1577 -0.4957
 1492SOL    HW2 4604   0.407   3.534   0.279 -0.2968 -0.4019  0.7593
 1493SOL     OW 4605   0.212   2.323   3.296  0.4588 -0.2525  0.0218
 1493SOL    HW1 4606   0.193   2.270   3.218 -3.0102 -0.9348  1.1735
 1493SOL    HW2 4607   0.260   2.264   3.354  0.0137 -0.8850 -0.2464
 1494SOL     OW 4608   0.867   0.624   0.414 -0.3542  0.4296 -0.1939
 1494SOL    HW1 4609   0.780   0.603   0.379 -0.7397  0.5543  0.6595
 1494SOL    HW2 4610   0.892   0.704   0.368  0.1939 -0.6785 -1.8980
 1495SOL     OW 4611   2.254   2.559   3.061  0.1034 -0.1653  0.5753
 1495SOL    HW1 4612   2.175   2.550   3.115 -0.6117 -2.0470 -0.6792
 1495SOL    HW2 4613   2.263   2.474   3.017  0.7758  1.1638 -2.0864
 1496SOL     OW 4614   2.058   0.291   3.513  0.1447  0.0389  0.5154
 1496SOL    HW1 4615   2.043   0.370   3.460 -1.8618 -0.7985 -0.2945
 1496SOL    HW2 4616   2.026   0.315   3.600 -0.0800  0.2501  0.3783
 1497SOL     OW 4617   0.164   1.326   0.919 -0.1492  0.1392  0.1249
 1497SOL    HW1 4618   0.172   1.240   0.959 -0.8888  0.1802  0.3875
 1497SOL    HW2 4619   0.178   1.388   0.991  0.5429  0.2379 -0.0968
 1498SOL     OW 4620   1.223   3.354   2.471 -0.4730 -0.1889 -0.3368
 1498SOL    HW1 4621   1.235   3.298   2.548 -0.4216 -3.4156 -2.4876
 1498SOL    HW2 4622   1.132   3.382   2.475 -0.7267 -1.0738  0.4355
 1499SOL     OW 4623   2.710   0.070   3.191 -0.2983  0.2515 -0.8033
 1499SOL    HW1 4624   2.702  -0.021   3.162  1.4695  0.9369 -3.7341
 1499SOL    HW2 4625   2.714   0.063   3.287 -3.4865 -2.3994 -0.6410
 1500SOL     OW 4626   1.593   1.591   2.613 -0.0704 -0.2657  0.4185
 1500SOL    HW1 4627   1.586   1.686   2.619  1.4730 -0.0799 -0.1140
 1500SOL    HW2 4628   1.688   1.574   2.612 -0.2465 -1.6190 -1.8367
 1501SOL     OW 4629   2.050   2.209   0.313  0.0355  0.2079 -0.5920
 1501SOL    HW1 4630   2.040   2.300   0.340  2.1598  0.5670 -0.8117
 1501SOL    HW2 4631   1.994   2.199   0.236 -0.0567  1.3876 -0.6875
 1502SOL     OW 4632   3.051   3.723   3.287  0.3921 -0.3602 -0.9717
 1502SOL    HW1 4633   3.057   3.668   3.365  1.5403  0.7624 -0.2441
 1502SOL    HW2 4634   3.002   3.669   3.224 -0.7398 -1.2173  0.5652
 1503SOL     OW 4635   2.010   2.555   3.249  0.0865 -0.3560 -0.1815
 1503SOL    HW1 4636   1.939   2.491   3.253  0.7981 -1.1087  1.1174
 1503SOL    HW2 4637   2.031   2.573   3.340  0.4818  1.0898 -0.5440
 1504SOL     OW 4638   0.292   1.917   2.678  0.2851 -0.6064  0.2503
 1504SOL    HW1 4639   0.228   1.885   2.615  2.3510  0.8877 -2.8388
 1504SOL    HW2 4640   0.350   1.843   2.693 -1.2186 -1.5232  1.9587
 1505SOL     OW 4641   3.640   3.166   0.737 -0.1326 -0.5375 -0.5192
 1505SOL    HW1 4642   3.554   3.205   0.721 -0.4017 -1.4193 -1.3457
 1505SOL    HW2 4643   3.682   3.226   0.798 -0.1105  1.6497 -2.5251
 1506SOL     OW 4644   3.195   3.039   1.528 -0.1002 -0.1878  0.3004
 1506SOL    HW1 4645   3.116   3.086   1.554 -1.3673 -0.6571 -2.4419
 1506SOL    HW2 4646   3.238   3.017   1.612 -2.0665  1.3575  1.8086
 1507SOL     OW 4647   2.079   0.015   2.048  0.1315  0.4848 -0.4994
 1507SOL    HW1 4648   2.104  -0.003   1.957  2.7034  1.1228  0.0126
 1507SOL    HW2 4649   2.045   0.104   2.047 -1.7183 -0.1805 -1.1065
 1508SOL     OW 4650   2.480   3.541   1.494 -0.9180  0.2332  0.1358
 1508SOL    HW1 4651   2.388   3.553   1.471 -0.5667  4.4217  0.0576
 1508SOL    HW2 4652   2.482   3.549   1.590 -0.6338 -0.0784  0.1592
 1509SOL     OW 4653   2.465   1.903   0.448  0.5799  0.6726 -0.1704
 1509SOL    HW1 4654   2.516   1.975   0.486  2.0165 -1.6684  2.7017
 1509SOL    HW2 4655   2.438   1.850   0.523 -2.1362 -0.7783 -2.0020
 1510SOL     OW 4656   2.530   0.198   3.422 -0.7361 -0.2143 -0.3091
 1510SOL    HW1 4657   2.456   0.240   3.466 -1.0661 -1.0981  0.0026
 1510SOL    HW2 4658   2.573   0.268   3.373 -1.0539  0.5527  0.4965
 1511SOL     OW 4659   0.384   1.655   0.769  0.0366  0.6667 -0.4276
 1511SOL    HW1 4660   0.291   1.647   0.744 -0.8575  2.8991  1.7488
 1511SOL    HW2 4661   0.432   1.640   0.687 -2.0871 -2.2399 -1.3003
 1512SOL     OW 4662   3.499   1.469   1.133  0.2176  0.6833  0.0110
 1512SOL    HW1 4663   3.425   1.410   1.149  1.0521  0.2523  2.7720
 1512SOL    HW2 4664   3.505   1.474   1.037 -2.6884 -0.0919 -0.3047
 1513SOL     OW 4665   1.276   2.344   2.589 -0.1796 -0.3328  0.2115
 1513SOL    HW1 4666   1.260   2.322   2.681 -1.2129  0.1366  0.1613
 1513SOL    HW2 4667   1.361   2.388   2.589  0.0818 -0.8183  0.8581
 1514SOL     OW 4668   3.047   2.771   3.460  0.0088 -1.0062  0.8716
 1514SOL    HW1 4669   2.959   2.794   3.490  1.0323  2.5111  1.7172
 1514SOL    HW2 4670   3.034   2.734   3.373 -2.2894  0.3647  0.5391
 1515SOL     OW 4671   0.160   2.673   1.849 -0.5485  0.4818  0.0264
 1515SOL    HW1 4672   0.189   2.604   1.908  0.1902 -0.4224 -1.3311
 1515SOL    HW2 4673   0.184   2.755   1.893  0.6350 -0.1768  0.6379
 1516SOL     OW 4674   3.583   2.158   1.095 -0.4607  0.3938  0.2861
 1516SOL    HW1 4675   3.532   2.082   1.120  1.9922 -1.3892  0.2033
 1516SOL    HW2 4676   3.626   2.186   1.175 -0.0769  0.6655 -0.0097
 1517SOL     OW 4677   0.914   1.479   1.141 -0.0005  0.8775  0.2162
 1517SOL    HW1 4678   0.882   1.569   1.137  2.1531  1.7272  0.5999
 1517SOL    HW2 4679   1.009   1.488   1.148  0.2572 -1.4399  0.4234
 1518SOL     OW 4680  -0.013   0.205   0.376  0.2313  0.1919  0.2191
 1518SOL    HW1 4681   0.037   0.262   0.435 -2.4972  2.5062  0.4985
 1518SOL    HW2 4682  -0.005   0.247   0.290 -0.8432  0.3952  0.2010
 1519SOL     OW 4683   3.513   2.454   1.254 -1.2468 -0.3134  0.6175
 1519SOL    HW1 4684   3.562   2.532   1.279 -2.6922  0.3881  1.3692
 1519SOL    HW2 4685   3.567   2.381   1.286  1.0061  0.2157 -1.6271
 1520SOL     OW 4686   1.426   2.736   1.063  0.7145 -0.4502  0.0148
 1520SOL    HW1 4687   1.476   2.706   1.139  2.1259 -3.1223 -1.8523
 1520SOL    HW2 4688   1.364   2.666   1.045  0.5367  0.0403 -1.4341
 1521SOL     OW 4689   2.479   1.312   3.434 -0.3958  0.0970 -0.4403
 1521SOL    HW1 4690   2.449   1.265   3.356  1.1942  0.7215 -1.4895
 1521SOL    HW2 4691   2.504   1.244   3.496 -0.1745 -0.4331 -1.1070
 1522SOL     OW 4692   0.471   1.499   3.492  0.4399 -0.0388 -0.3814
 1522SOL    HW1 4693   0.476   1.410   3.526 -1.3530 -0.7432 -1.7943
 1522SOL    HW2 4694   0.557   1.537   3.510  2.0793 -2.7958 -1.7624
 1523SOL     OW 4695   3.568   1.367   3.233 -0.5146 -0.3023  0.2216
 1523SOL    HW1 4696   3.474   1.351   3.240 -0.4568  0.1331  2.7036
 1523SOL    HW2 4697   3.606   1.280   3.226 -1.0717 -0.4703 -1.3278
 1524SOL     OW 4698   3.293   1.769   1.050 -0.4280  0.2182 -0.6163
 1524SOL    HW1 4699   3.274   1.748   0.958 -1.2245 -1.2021 -0.1604
 1524SOL    HW2 4700   3.237   1.844   1.070 -1.5693 -0.5468 -0.8285
 1525SOL     OW 4701   3.473   0.932   2.757 -0.1461 -0.6948  0.4333
 1525SOL    HW1 4702   3.388   0.962   2.791 -0.6491 -1.7341  0.1151
 1525SOL    HW2 4703   3.458   0.918   2.663  0.7402  0.3736  0.1151
 1526SOL     OW 4704   1.853   2.885   2.593 -0.3173 -0.4274  0.2944
 1526SOL    HW1 4705   1.847   2.954   2.658  1.8868 -0.7711  0.9448
 1526SOL    HW2 4706   1.940   2.897   2.553 -0.7479 -1.5431 -1.0666
 1527SOL     OW 4707   1.621   2.198   2.440 -0.5153  0.6344  0.2365
 1527SOL    HW1 4708   1.589   2.143   2.369  0.0838 -0.0763  0.5001
 1527SOL    HW2 4709   1.559   2.184   2.511 -0.6434  0.6836  0.1334
 1528SOL     OW 4710   1.611   0.214   0.517  0.1163  0.3155  0.7581
 1528SOL    HW1 4711   1.519   0.230   0.498  0.2800 -0.1906 -0.5209
 1528SOL    HW2 4712   1.659   0.246   0.441  0.9490 -0.0312  1.1142
 1529SOL     OW 4713   0.408   0.026   2.354 -0.2441 -0.6939 -0.0729
 1529SOL    HW1 4714   0.336   0.088   2.360  0.3833  0.0575 -0.1729
 1529SOL    HW2 4715   0.485   0.080   2.335  1.0055 -1.0470  3.2790
 1530SOL     OW 4716   2.735   1.957   1.602  0.3925 -0.3922 -0.4872
 1530SOL    HW1 4717   2.770   1.980   1.688  0.3537  0.7333 -0.7520
 1530SOL    HW2 4718   2.650   1.917   1.621  0.3764 -0.1369  0.0083
 1531SOL     OW 4719   1.812   2.399   0.377 -0.1373  0.4973  0.3009
 1531SOL    HW1 4720   1.749   2.339   0.335  1.4341 -0.5378 -0.6924
 1531SOL    HW2 4721   1.797   2.388   0.471 -0.1736 -1.1925  0.1301
 1532SOL     OW 4722   2.438   2.825   2.113  0.0094 -0.1910  0.0670
 1532SOL    HW1 4723   2.480   2.897   2.161 -1.1678 -0.3300  1.3871
 1532SOL    HW2 4724   2.498   2.806   2.041  0.0672  2.5732 -0.7624
 1533SOL     OW 4725   0.942   3.086   2.608  0.0854 -0.4115  0.0499
 1533SOL    HW1 4726   0.894   3.087   2.691 -0.2323 -0.1768 -0.1325
 1533SOL    HW2 4727   0.975   2.996   2.601 -2.4295 -1.3755 -0.9844
 1534SOL     OW 4728   2.843   3.287   3.693  0.1524  0.1526 -0.1061
 1534SOL    HW1 4729   2.805   3.248   3.614 -1.3373  1.6567 -0.1853
 1534SOL    HW2 4730   2.935   3.261   3.690 -0.1485 -0.9041 -1.6524
 1535SOL     OW 4731   3.130   3.087   2.740  0.0703 -0.6469 -0.2229
 1535SOL    HW1 4732   3.139   3.110   2.833 -1.5396  1.0109 -0.4177
 1535SOL    HW2 4733   3.047   3.039   2.736  0.1026 -0.6546 -0.8306
 1536SOL     OW 4734   0.862   0.614   2.923 -0.0408  0.4758  0.1916
 1536SOL    HW1 4735   0.944   0.564   2.927 -0.6714 -0.6403 -0.5337
 1536SOL    HW2 4736   0.889   0.705   2.941  1.4655  0.2585 -0.7904
 1537SOL     OW 4737   0.674   0.272   0.856  0.0140 -0.1283 -0.2371
 1537SOL    HW1 4738   0.760   0.254   0.817  0.0480  1.0104 -0.7279
 1537SOL    HW2 4739   0.679   0.232   0.943  0.6428 -1.0093 -0.6582
 1538SOL     OW 4740   2.211   1.133   0.624  0.2077  0.0400  0.0639
 1538SOL    HW1 4741   2.198   1.202   0.690 -0.3709  0.1119 -0.1155
 1538SOL    HW2 4742   2.123   1.114   0.593  0.1840 -1.8821  1.1999
 1539SOL     OW 4743   1.626   0.710   0.454 -0.2951  0.4274 -0.7883
 1539SOL    HW1 4744   1.581   0.792   0.472 -0.3274  0.2475 -0.0013
 1539SOL    HW2 4745   1.690   0.701   0.525  1.6714  1.1327 -2.3762
 1540SOL     OW 4746   0.419   3.272   2.175 -0.9499 -0.2707  0.0701
 1540SOL    HW1 4747   0.326   3.288   2.188 -0.9989 -0.8182  0.4163
 1540SOL    HW2 4748   0.460   3.302   2.257 -0.1785  4.7497 -1.7558
 1541SOL     OW 4749   1.281   2.113   2.414 -0.9112  0.0689 -0.3910
 1541SOL    HW1 4750   1.302   2.055   2.486 -2.4930 -1.2492 -0.9247
 1541SOL    HW2 4751   1.276   2.200   2.454  0.4327 -0.2947  0.6285
 1542SOL     OW 4752   1.505   3.431   1.709  0.3156 -0.1761 -0.9867
 1542SOL    HW1 4753   1.481   3.357   1.654  1.4310 -1.8186  0.6039
 1542SOL    HW2 4754   1.595   3.414   1.735 -0.2713  0.2476  1.6568
 1543SOL     OW 4755   0.859   3.623   0.194 -0.5784  0.5214  0.0425
 1543SOL    HW1 4756   0.849   3.583   0.108  0.4135 -0.3738  0.3132
 1543SOL    HW2 4757   0.821   3.710   0.185 -1.4245  0.0680 -1.0019
 1544SOL     OW 4758   0.827   2.497   0.685  0.2158  0.5282 -0.0717
 1544SOL    HW1 4759   0.807   2.495   0.779 -0.8814  0.1424 -0.3005
 1544SOL    HW2 4760   0.910   2.544   0.680  1.2232 -0.9465  1.2547
 1545SOL     OW 4761   1.642   3.392   2.100  0.1497 -0.7200  0.1422
 1545SOL    HW1 4762   1.638   3.459   2.168  2.5353 -0.4821  0.1400
 1545SOL    HW2 4763   1.667   3.439   2.021  1.3349 -1.4969  0.0215
 1546SOL     OW 4764   0.908   1.715   0.539 -0.0200 -0.5166  0.0013
 1546SOL    HW1 4765   0.973   1.662   0.584  2.3896  2.6433  0.6144
 1546SOL    HW2 4766   0.956   1.792   0.509 -3.4504  2.1378  0.5918
 1547SOL     OW 4767   0.200   1.412   3.545 -0.2537  0.3561  0.0047
 1547SOL    HW1 4768   0.204   1.323   3.512 -1.6792  0.0797  0.4912
 1547SOL    HW2 4769   0.277   1.455   3.509  1.0193 -1.3364  0.5826
 1548SOL     OW 4770   2.417   0.906   1.028  0.1434  0.0168  0.5224
 1548SOL    HW1 4771   2.481   0.844   0.993  1.5698  0.9898  1.2791
 1548SOL    HW2 4772   2.374   0.858   1.098  0.0446 -0.6590  0.0053
 1549SOL     OW 4773   1.336   1.546   1.319 -0.1435 -0.2842  0.0976
 1549SOL    HW1 4774   1.367   1.613   1.380 -1.4238 -1.5563  2.2868
 1549SOL    HW2 4775   1.414   1.492   1.303  0.4599  0.6653 -0.2445
 1550SOL     OW 4776   1.832   2.069   0.791 -0.5784 -0.3891 -0.2104
 1550SOL    HW1 4777   1.802   2.001   0.732 -1.2458 -1.3928  1.2144
 1550SOL    HW2 4778   1.827   2.150   0.740 -0.2902 -1.3174 -1.7614
 1551SOL     OW 4779   0.160   3.588   1.780 -0.4269 -0.0651 -0.5917
 1551SOL    HW1 4780   0.202   3.534   1.846  2.6376  2.7811  0.0767
 1551SOL    HW2 4781   0.212   3.575   1.701 -0.5762  0.7282 -0.8328
 1552SOL     OW 4782   2.815   1.328   0.150 -0.3064  0.4689  0.1351
 1552SOL    HW1 4783   2.847   1.270   0.081 -0.0991  0.9449 -0.1715
 1552SOL    HW2 4784   2.721   1.334   0.135 -0.0892  1.6536 -0.9600
 1553SOL     OW 4785   1.951   3.159   1.748  0.3357 -0.6097  0.1369
 1553SOL    HW1 4786   2.029   3.111   1.722  1.0883  0.0543  1.0982
 1553SOL    HW2 4787   1.883   3.093   1.757  0.7476 -1.1828 -0.8142
 1554SOL     OW 4788   2.338   2.190   1.274 -0.2313  0.1090  0.2056
 1554SOL    HW1 4789   2.327   2.102   1.310 -0.3688 -0.0280 -0.1590
 1554SOL    HW2 4790   2.414   2.226   1.319  0.1505 -0.3971 -0.0205
 1555SOL     OW 4791   2.942   0.061   0.739 -0.2358  0.2086 -0.2412
 1555SOL    HW1 4792   2.998  -0.011   0.768 -0.6997  0.4280  1.3128
 1555SOL    HW2 4793   2.951   0.062   0.644 -0.8406 -2.4561 -0.4230
 1556SOL     OW 4794   1.874   1.523   1.068  0.2603 -0.6819  0.1105
 1556SOL    HW1 4795   1.812   1.552   1.001 -1.0801 -1.6790  0.8751
 1556SOL    HW2 4796   1.956   1.567   1.045 -0.5189  0.0795 -1.3699
 1557SOL     OW 4797   1.966   3.161   0.564  0.0486 -0.2235  0.0777
 1557SOL    HW1 4798   1.910   3.218   0.618 -1.5879 -0.3100 -1.4160
 1557SOL    HW2 4799   2.053   3.200   0.571 -0.4085  0.6152  1.5875
 1558SOL     OW 4800   1.327   2.523   3.073  0.2189  0.1188  0.1090
 1558SOL    HW1 4801   1.242   2.565   3.081 -0.2767 -0.7008 -0.6475
 1558SOL    HW2 4802   1.333   2.463   3.148 -0.9528 -1.6288 -1.1173
 1559SOL     OW 4803   0.748   2.102   2.602 -0.2834 -0.3443 -0.1509
 1559SOL    HW1 4804   0.727   2.048   2.678  0.2487 -0.2200  0.0847
 1559SOL    HW2 4805   0.840   2.085   2.584  0.4822  1.9981  1.1836
 1560SOL     OW 4806   0.150   1.616   2.820 -0.4856 -0.5171 -0.1781
 1560SOL    HW1 4807   0.083   1.671   2.778 -0.5100  0.5514  1.1890
 1560SOL    HW2 4808   0.138   1.631   2.914  1.0210 -1.0883  0.1331
 1561SOL     OW 4809   2.516   0.832   2.146 -0.6056 -0.0750 -0.5500
 1561SOL    HW1 4810   2.540   0.818   2.238 -0.9227  2.1810 -0.0708
 1561SOL    HW2 4811   2.520   0.744   2.107  1.4650 -0.8217  1.1350
 1562SOL     OW 4812   0.401   3.147   2.520  1.1861  0.4735  0.0971
 1562SOL    HW1 4813   0.460   3.178   2.590  1.9640  0.9064 -0.7364
 1562SOL    HW2 4814   0.340   3.220   2.508  2.0659  1.0833 -0.7951
 1563SOL     OW 4815   0.541   0.022   1.792  0.2670  0.5770 -0.7464
 1563SOL    HW1 4816   0.515   0.089   1.729  0.1398  1.2220 -0.0227
 1563SOL    HW2 4817   0.537   0.066   1.877 -2.0240 -0.9310  0.0435
 1564SOL     OW 4818   1.913   2.782   1.510 -0.1754 -0.1489 -0.1609
 1564SOL    HW1 4819   1.975   2.710   1.500 -1.0627 -0.6664 -2.8787
 1564SOL    HW2 4820   1.837   2.743   1.552  1.0848  0.4387  2.9765
 1565SOL     OW 4821   3.194   3.104   1.886  0.9664 -0.2248 -0.3800
 1565SOL    HW1 4822   3.220   3.183   1.838  3.3102 -0.4047  0.4839
 1565SOL    HW2 4823   3.254   3.037   1.857  0.7825 -0.9883  0.9168
 1566SOL     OW 4824   0.645   2.526   1.865 -0.7556  0.8639 -0.6368
 1566SOL    HW1 4825   0.679   2.447   1.822 -0.4735 -0.1286  1.3101
 1566SOL    HW2 4826   0.709   2.594   1.845  0.1327  0.0651 -0.5786
 1567SOL     OW 4827   0.872   3.599   3.128  0.0901 -0.1736  0.0319
 1567SOL    HW1 4828   0.900   3.627   3.215  0.3532  0.8972 -0.3797
 1567SOL    HW2 4829   0.790   3.646   3.112  0.4424  0.2491 -0.5960
 1568SOL     OW 4830   3.127   3.457   1.323 -0.5916 -0.2173  0.3189
 1568SOL    HW1 4831   3.100   3.515   1.394 -0.0849  0.0371  0.3072
 1568SOL    HW2 4832   3.066   3.384   1.327  0.4176 -1.0244  2.0637
 1569SOL     OW 4833   0.526   1.165   0.298 -0.7898  0.3889 -0.2767
 1569SOL    HW1 4834   0.537   1.234   0.233 -0.6200  1.6846  1.0823
 1569SOL    HW2 4835   0.513   1.211   0.381 -1.9854 -1.1949  0.4823
 1570SOL     OW 4836   3.041   0.886   0.856  0.5255 -0.3245  0.2586
 1570SOL    HW1 4837   3.046   0.958   0.920 -0.0231 -0.5329  0.5382
 1570SOL    HW2 4838   3.133   0.866   0.837  0.7081 -0.3036  1.0430
 1571SOL     OW 4839   1.068   2.591   0.061 -0.0012  0.2178 -0.2013
 1571SOL    HW1 4840   1.065   2.656  -0.009 -0.7230 -0.7926 -1.1387
 1571SOL    HW2 4841   0.977   2.574   0.082  0.1934 -0.1284  0.3736
 1572SOL     OW 4842   2.648   3.645   3.562 -0.0469  0.0368  0.3293
 1572SOL    HW1 4843   2.564   3.600   3.571  1.0272 -1.6825  2.9440
 1572SOL    HW2 4844   2.624   3.737   3.550 -2.2680 -0.6639 -1.3850
 1573SOL     OW 4845   3.065   0.703   1.153  0.1058  0.2600  0.7369
 1573SOL    HW1 4846   3.083   0.664   1.068 -0.8490 -1.2291  1.1784
 1573SOL    HW2 4847   3.046   0.795   1.134 -0.1060 -0.0555 -0.6502
 1574SOL     OW 4848   1.423   2.077   0.846 -0.5976  0.1596  0.2068
 1574SOL    HW1 4849   1.410   2.165   0.810 -0.0948  0.6059  1.0834
 1574SOL    HW2 4850   1.337   2.051   0.879 -1.4068 -0.7990 -2.4054
 1575SOL     OW 4851   0.854   0.915   2.652  0.3852 -0.1033 -0.4222
 1575SOL    HW1 4852   0.933   0.862   2.650  0.3846 -0.1099 -1.9159
 1575SOL    HW2 4853   0.871   0.981   2.719  1.5800 -0.2285 -0.5791
 1576SOL     OW 4854   3.163   2.315   1.352  0.6835  0.1042 -0.6204
 1576SOL    HW1 4855   3.229   2.248   1.368 -1.0280 -1.3033  0.9018
 1576SOL    HW2 4856   3.151   2.315   1.257 -0.0448 -2.5772 -0.5948
 1577SOL     OW 4857   1.471   3.122   2.726 -0.1825  0.1513 -0.0182
 1577SOL    HW1 4858   1.476   3.136   2.820 -0.8787  1.1047 -0.1127
 1577SOL    HW2 4859   1.475   3.027   2.715 -0.4550  0.0186  0.9932
 1578SOL     OW 4860   0.346   3.051   1.776  0.1600  0.3029  0.2636
 1578SOL    HW1 4861   0.374   2.962   1.798 -0.8618  0.1644  1.0711
 1578SOL    HW2 4862   0.392   3.107   1.838  1.4652  0.4456 -0.7893
 1579SOL     OW 4863   1.477   1.774   2.864  0.7145 -0.5209 -0.0265
 1579SOL    HW1 4864   1.388   1.795   2.892  0.9526 -0.1042  0.4381
 1579SOL    HW2 4865   1.487   1.681   2.882 -0.7060 -1.3826 -3.0400
 1580SOL     OW 4866   0.370   2.331   0.305  0.2750 -0.4381  0.2272
 1580SOL    HW1 4867   0.457   2.310   0.270  0.1472 -1.4038  0.4756
 1580SOL    HW2 4868   0.360   2.425   0.287  1.0737 -0.4633 -0.4368
 1581SOL     OW 4869   2.170   2.617   1.051 -0.1442  0.4725  0.7081
 1581SOL    HW1 4870   2.254   2.620   1.004 -1.2362 -1.6772 -1.6233
 1581SOL    HW2 4871   2.106   2.646   0.987 -1.7095 -2.6350  0.6668
 1582SOL     OW 4872   1.639   3.680   0.184 -0.4322  0.5938 -0.0127
 1582SOL    HW1 4873   1.557   3.707   0.227 -1.1023 -1.3798  0.0600
 1582SOL    HW2 4874   1.706   3.693   0.251 -1.1010 -0.1668  0.8364
 1583SOL     OW 4875   0.744   0.568   2.675  0.1663  0.6215 -0.0531
 1583SOL    HW1 4876   0.759   0.592   2.767  1.2522 -1.8141  0.4669
 1583SOL    HW2 4877   0.699   0.644   2.638 -2.1003  0.9491  2.9718
 1584SOL     OW 4878   2.365   0.347   3.078  0.1569 -0.0054  0.2794
 1584SOL    HW1 4879   2.459   0.368   3.085 -0.1674  1.3027  0.8956
 1584SOL    HW2 4880   2.364   0.253   3.061  1.6339  0.1484 -1.0240
 1585SOL     OW 4881   2.649   0.817   1.387  0.0624 -0.0383 -0.1566
 1585SOL    HW1 4882   2.656   0.789   1.295 -1.4563 -2.0593  0.2859
 1585SOL    HW2 4883   2.706   0.757   1.434 -0.1208  0.2164  0.3894
 1586SOL     OW 4884   1.754   1.058   2.011  0.4727 -0.0440  0.4690
 1586SOL    HW1 4885   1.739   1.066   2.106  1.0539  3.8651  0.4118
 1586SOL    HW2 4886   1.826   1.119   1.994  2.1783 -2.5622 -2.2173
 1587SOL     OW 4887   0.002   0.916   0.439 -0.2734  0.1477 -0.6131
 1587SOL    HW1 4888   0.052   0.846   0.480 -0.4183  0.4782  0.1369
 1587SOL    HW2 4889   0.035   0.919   0.349  2.5113  1.6562  0.3250
 1588SOL     OW 4890   3.451   1.445   1.484  0.1503  0.2252  0.6068
 1588SOL    HW1 4891   3.544   1.470   1.478 -0.2370  1.4504 -0.9431
 1588SOL    HW2 4892   3.441   1.378   1.416 -0.5455  1.7342 -0.8559
 1589SOL     OW 4893   2.588   0.053   1.397 -0.0852  0.1117  0.6347
 1589SOL    HW1 4894   2.555  -0.029   1.434  0.5387 -0.6378 -0.3959
 1589SOL    HW2 4895   2.540   0.122   1.443  1.0899 -0.6954  3.2910
 1590SOL     OW 4896   3.669   0.988   0.801  0.0297  0.3938 -0.2657
 1590SOL    HW1 4897   3.754   1.020   0.769  1.3045 -2.0940  0.3257
 1590SOL    HW2 4898   3.670   0.895   0.781 -1.2062 -0.3183  2.5327
 1591SOL     OW 4899   2.600   2.944   1.716 -0.5968 -0.0257 -0.4471
 1591SOL    HW1 4900   2.685   2.910   1.688 -0.1767  0.7609 -0.1540
 1591SOL    HW2 4901   2.542   2.929   1.641  0.0487  0.3559 -1.0305
 1592SOL     OW 4902   2.491   0.559   1.180  0.4846  0.2662  0.2207
 1592SOL    HW1 4903   2.424   0.627   1.194  0.9943  0.9021 -0.3512
 1592SOL    HW2 4904   2.456   0.482   1.224  0.0251  0.9821  1.1722
 1593SOL     OW 4905   3.208   0.649   0.911  0.1445 -0.5034 -0.2166
 1593SOL    HW1 4906   3.265   0.694   0.849  1.4181 -1.7123  0.0103
 1593SOL    HW2 4907   3.266   0.630   0.986 -1.2619  0.6422  1.2276
 1594SOL     OW 4908   2.814   2.863   3.558  0.2151  0.1421 -0.5310
 1594SOL    HW1 4909   2.796   2.851   3.651  4.5762  1.0030  0.6538
 1594SOL    HW2 4910   2.728   2.872   3.517 -1.8589  0.6190  3.5107
 1595SOL     OW 4911   3.343   2.655   3.158  0.3210 -0.3043 -0.1398
 1595SOL    HW1 4912   3.301   2.580   3.199  0.7641 -0.6655 -0.3359
 1595SOL    HW2 4913   3.301   2.662   3.072  0.3125 -0.3557 -0.1395
 1596SOL     OW 4914   1.686   0.942   2.433 -0.1606  0.8220 -0.2057
 1596SOL    HW1 4915   1.737   0.888   2.373  1.6171  3.4108 -1.2135
 1596SOL    HW2 4916   1.706   0.908   2.520 -0.3967 -1.0783 -0.8456
 1597SOL     OW 4917   0.428   2.866   0.265  0.1729 -0.0876  0.3796
 1597SOL    HW1 4918   0.388   2.779   0.256 -0.1041 -0.1815  2.1589
 1597SOL    HW2 4919   0.357   2.922   0.296  0.3750  0.7687 -0.6631
 1598SOL     OW 4920   1.441   2.848   0.356 -0.3035 -0.5873  0.2753
 1598SOL    HW1 4921   1.514   2.859   0.296 -0.5127 -1.5890 -0.1820
 1598SOL    HW2 4922   1.462   2.768   0.405 -1.1625 -0.9865  0.0119
 1599SOL     OW 4923   2.080   1.024   3.179  0.1545  0.5036 -0.2626
 1599SOL    HW1 4924   1.995   1.065   3.162  0.0962  1.3304  1.7735
 1599SOL    HW2 4925   2.105   1.055   3.266  3.1538  1.2919 -1.2878
 1600SOL     OW 4926   2.179   0.263   1.081 -0.1718 -0.3047  0.2101
 1600SOL    HW1 4927   2.147   0.227   0.998 -2.9062  1.2003  0.5032
 1600SOL    HW2 4928   2.267   0.293   1.061 -0.3571 -0.9705 -1.8605
 1601SOL     OW 4929   3.239   2.661   1.129  0.5171 -0.4253  0.9564
 1601SOL    HW1 4930   3.275   2.728   1.187 -0.0140 -0.6118  1.5035
 1601SOL    HW2 4931   3.282   2.580   1.155  0.2837 -0.5082  1.0861
 1602SOL     OW 4932   1.126   0.677   1.493  0.3582  0.2893  1.1267
 1602SOL    HW1 4933   1.168   0.597   1.462  0.5741  0.5369  0.7717
 1602SOL    HW2 4934   1.079   0.710   1.417 -0.5642 -0.0373  1.5511
 1603SOL     OW 4935   0.831   2.610   2.845  0.7697 -0.1071 -0.8039
 1603SOL    HW1 4936   0.758   2.643   2.898  0.3095 -0.2144 -1.3656
 1603SOL    HW2 4937   0.907   2.614   2.904  0.3189  0.0282 -0.2233
 1604SOL     OW 4938   2.803   0.905   2.104 -0.6915 -0.5838  0.3633
 1604SOL    HW1 4939   2.818   0.821   2.147 -1.3934 -0.6856  0.4128
 1604SOL    HW2 4940   2.888   0.949   2.107 -0.6938 -0.6342  1.7424
 1605SOL     OW 4941   3.586   0.829   3.445  0.0225  0.3277  1.2404
 1605SOL    HW1 4942   3.493   0.845   3.464 -0.3056  0.5322 -0.3965
 1605SOL    HW2 4943   3.618   0.781   3.521 -1.2549  0.8494  2.1411
 1606SOL     OW 4944   1.553   0.211   2.156 -0.2867 -0.1737  0.1942
 1606SOL    HW1 4945   1.604   0.141   2.114 -2.2975  0.0502 -2.9226
 1606SOL    HW2 4946   1.533   0.176   2.243 -0.3855 -3.0981 -0.8704
 1607SOL     OW 4947   0.108   3.045   1.962  0.2714 -0.0201 -0.1089
 1607SOL    HW1 4948   0.183   3.103   1.944 -0.3154  0.7615 -0.1063
 1607SOL    HW2 4949   0.135   2.994   2.038  1.7863 -1.5555 -1.5956
 1608SOL     OW 4950   0.656   2.171   1.359 -0.3685 -0.1856 -0.0212
 1608SOL    HW1 4951   0.564   2.191   1.378 -0.6485 -1.7565  0.4307
 1608SOL    HW2 4952   0.664   2.184   1.265 -0.3835  2.3521  0.2601
 1609SOL     OW 4953   1.160   2.857   2.891  0.6819 -0.0973  0.2150
 1609SOL    HW1 4954   1.066   2.849   2.876  0.4215  2.1176  0.3075
 1609SOL    HW2 4955   1.200   2.824   2.811 -0.2704  0.7562 -0.6470
 1610SOL     OW 4956   0.227   0.275   2.438  0.1059  0.6377  0.3242
 1610SOL    HW1 4957   0.174   0.336   2.387 -1.5674 -1.0468 -0.0214
 1610SOL    HW2 4958   0.311   0.272   2.392 -0.3521  1.4171 -0.5881
 1611SOL     OW 4959   1.603   1.539   3.246  0.3056  0.0729 -0.3203
 1611SOL    HW1 4960   1.572   1.549   3.156  2.4512 -2.2313 -1.4276
 1611SOL    HW2 4961   1.662   1.614   3.259  0.9562 -0.2470 -1.3081
 1612SOL     OW 4962   3.268   2.569   2.373 -0.3846 -0.2495  0.5310
 1612SOL    HW1 4963   3.217   2.497   2.337 -0.0489 -0.9139  1.3587
 1612SOL    HW2 4964   3.359   2.543   2.358 -0.2520 -0.2868  1.3610
 1613SOL     OW 4965   1.989   0.279   1.289 -0.6556  0.1164 -0.4248
 1613SOL    HW1 4966   2.048   0.257   1.217 -1.7611 -2.6627 -0.5942
 1613SOL    HW2 4967   1.921   0.332   1.248  0.0966  0.7844 -0.8420
 1614SOL     OW 4968   3.048   2.012   1.418  0.0051  0.1324 -0.1615
 1614SOL    HW1 4969   3.098   2.068   1.359  0.3992 -0.8580 -0.8075
 1614SOL    HW2 4970   3.021   1.938   1.363 -0.6148 -0.2444  0.6294
 1615SOL     OW 4971   1.757   1.676   0.453  0.0836 -0.1873  0.0663
 1615SOL    HW1 4972   1.789   1.586   0.446  0.3294 -0.1117  0.1676
 1615SOL    HW2 4973   1.825   1.728   0.411  0.4420  0.0448  0.9074
 1616SOL     OW 4974   2.916   3.413   1.029  0.7289  0.4736 -0.0763
 1616SOL    HW1 4975   2.889   3.482   1.090  0.1569 -0.1232  0.3666
 1616SOL    HW2 4976   3.012   3.411   1.036  0.6896  0.5875  0.6268
 1617SOL     OW 4977   1.535   1.395   1.562 -0.7478 -0.2106 -0.2958
 1617SOL    HW1 4978   1.516   1.420   1.653 -1.5217  0.0447 -0.5211
 1617SOL    HW2 4979   1.583   1.470   1.527 -2.6182  0.8094 -0.8163
 1618SOL     OW 4980   0.295   1.372   1.382  0.2411 -0.3739 -0.1867
 1618SOL    HW1 4981   0.320   1.280   1.390  1.4090  0.0070  0.8668
 1618SOL    HW2 4982   0.327   1.412   1.463 -0.7453  0.8493 -0.3870
 1619SOL     OW 4983   2.295   1.887   0.078  0.3804  0.3526  0.4943
 1619SOL    HW1 4984   2.256   1.925  -0.001  2.1010  1.4376  0.0975
 1619SOL    HW2 4985   2.265   1.944   0.149  0.4989  0.6300  0.3251
 1620SOL     OW 4986   0.350   1.732   1.470 -0.3691 -0.3059 -0.2468
 1620SOL    HW1 4987   0.444   1.733   1.453 -0.3026  0.2519  0.1279
 1620SOL    HW2 4988   0.310   1.752   1.385 -0.1152  0.4304 -0.1954
 1621SOL     OW 4989   3.419   1.064   0.248  0.0207  0.7649 -0.2885
 1621SOL    HW1 4990   3.332   1.051   0.210 -1.0098 -0.2555  2.2066
 1621SOL    HW2 4991   3.476   1.076   0.173 -2.1090  0.4389 -2.0648
 1622SOL     OW 4992   1.475   1.424   3.508  0.5746  0.6494  0.7107
 1622SOL    HW1 4993   1.521   1.353   3.554  0.5893  0.5970  0.6158
 1622SOL    HW2 4994   1.543   1.466   3.455  0.5757  0.7650  0.8052
 1623SOL     OW 4995   2.559   2.497   2.850  0.1585  0.3623  0.5824
 1623SOL    HW1 4996   2.602   2.412   2.843 -0.1564  0.0502  2.0747
 1623SOL    HW2 4997   2.470   2.481   2.816 -0.1974 -0.1651  1.7113
 1624SOL     OW 4998   3.238   2.316   2.301 -0.4431 -0.0139 -0.4378
 1624SOL    HW1 4999   3.252   2.366   2.221 -0.2527 -0.3578 -0.6225
 1624SOL    HW2 5000   3.252   2.225   2.275  2.2883  0.0369  0.5719
 1625SOL     OW 5001   0.449   3.001   2.277  0.0234 -0.5525  0.4778
 1625SOL    HW1 5002   0.450   2.983   2.371  0.4574 -0.6965  0.4458
 1625SOL    HW2 5003   0.374   3.060   2.265 -0.8958 -1.6341  0.7146
 1626SOL     OW 5004   2.081   1.972   1.689  0.1555  0.2933  0.1133
 1626SOL    HW1 5005   2.135   1.911   1.740 -0.0693 -1.0052 -1.1221
 1626SOL    HW2 5006   2.088   2.055   1.735  2.9166  0.0932  0.1880
 1627SOL     OW 5007   1.806   0.581   2.470  0.1568 -0.3139 -0.1167
 1627SOL    HW1 5008   1.726   0.536   2.497  0.3536  0.8123  2.6794
 1627SOL    HW2 5009   1.877   0.522   2.495  0.2822 -0.2394 -0.2931
 1628SOL     OW 5010   3.700   1.621   1.197 -0.3927 -0.4040 -0.2737
 1628SOL    HW1 5011   3.658   1.704   1.176 -1.4144 -0.5610  0.9992
 1628SOL    HW2 5012   3.640   1.554   1.163  0.1751 -0.6260 -0.8483
 1629SOL     OW 5013   1.004   3.483   2.552 -0.5332 -0.5407  0.2523
 1629SOL    HW1 5014   1.057   3.555   2.584 -1.2338 -1.1535  3.0059
 1629SOL    HW2 5015   0.957   3.450   2.629 -0.2929 -3.8891 -0.8351
 1630SOL     OW 5016   0.843   3.181   2.368  0.3284  0.2844 -0.5131
 1630SOL    HW1 5017   0.775   3.244   2.393 -0.2940 -0.9771  1.2595
 1630SOL    HW2 5018   0.899   3.175   2.445 -0.0169 -1.7578 -0.3544
 1631SOL     OW 5019   1.827   0.439   3.356 -0.4603  0.3430  0.1129
 1631SOL    HW1 5020   1.787   0.526   3.353 -0.2236  0.4750  0.6677
 1631SOL    HW2 5021   1.921   0.456   3.369 -0.2805  0.0255 -0.7174
 1632SOL     OW 5022   2.561   3.410   3.311  0.2980 -0.4025  0.4038
 1632SOL    HW1 5023   2.506   3.427   3.387  0.1738  0.3489  0.1530
 1632SOL    HW2 5024   2.511   3.444   3.237  0.5079 -0.9403  0.0038
 1633SOL     OW 5025   2.405   1.403   3.126  0.0695  0.1104  0.0971
 1633SOL    HW1 5026   2.394   1.316   3.088  3.1711 -0.6728  0.7172
 1633SOL    HW2 5027   2.324   1.418   3.174 -1.0437 -1.8911 -1.0094
 1634SOL     OW 5028   2.193   2.837   3.094  0.4266 -0.2264  0.0681
 1634SOL    HW1 5029   2.207   2.753   3.050 -0.3483 -0.3184 -0.0187
 1634SOL    HW2 5030   2.155   2.893   3.027 -2.6092 -0.9371  1.0106
 1635SOL     OW 5031   2.958   1.647   0.537 -0.1681 -0.7394 -0.5497
 1635SOL    HW1 5032   2.892   1.664   0.604 -0.3300 -0.1320 -0.8610
 1635SOL    HW2 5033   2.952   1.553   0.520  0.9964 -1.2543  1.4788
 1636SOL     OW 5034   1.345   1.794   3.617 -0.0932 -0.1818 -0.4656
 1636SOL    HW1 5035   1.419   1.836   3.574 -1.0457  0.4979 -1.5268
 1636SOL    HW2 5036   1.351   1.821   3.708 -0.0055  1.3315 -0.8919
 1637SOL     OW 5037   3.307   3.647   0.391  0.0556  0.4775  0.5337
 1637SOL    HW1 5038   3.267   3.561   0.402  0.6456  0.1343  0.0387
 1637SOL    HW2 5039   3.255   3.705   0.447 -0.6410 -0.1042  0.4998
 1638SOL     OW 5040   0.169   2.158   0.434 -0.7575 -0.3343  0.1107
 1638SOL    HW1 5041   0.234   2.221   0.403 -1.8557  0.9648  0.3664
 1638SOL    HW2 5042   0.215   2.108   0.502  0.8025 -1.3238 -1.5817
 1639SOL     OW 5043   1.538   1.805   0.718  0.3514 -0.1505 -0.3553
 1639SOL    HW1 5044   1.569   1.887   0.679  0.0564  0.0724 -0.1310
 1639SOL    HW2 5045   1.511   1.830   0.807  1.5385 -0.7633  0.1917
 1640SOL     OW 5046   0.459   3.154   3.023  0.1245 -0.6685 -1.2296
 1640SOL    HW1 5047   0.433   3.189   3.108  2.8998  0.1368 -0.5831
 1640SOL    HW2 5048   0.475   3.061   3.039  3.5836 -0.0142  0.0962
 1641SOL     OW 5049   0.218   1.012   3.002 -0.2093 -0.0760 -0.1007
 1641SOL    HW1 5050   0.210   0.930   2.953 -2.3651  0.7305 -1.2297
 1641SOL    HW2 5051   0.179   0.994   3.087  0.7000 -0.5990  0.2276
 1642SOL     OW 5052   2.597   1.092   2.208 -0.3409 -0.2673 -0.2932
 1642SOL    HW1 5053   2.620   1.170   2.157 -4.6214  0.8290 -0.9360
 1642SOL    HW2 5054   2.643   1.021   2.163  2.8143  1.6031 -0.3672
 1643SOL     OW 5055   0.173   3.116   3.092 -0.2020 -0.0901 -0.0341
 1643SOL    HW1 5056   0.187   3.066   3.011 -0.6545 -0.0069 -0.1663
 1643SOL    HW2 5057   0.216   3.200   3.075 -1.9031  0.6502 -0.9366
 1644SOL     OW 5058   1.918   3.248   1.376 -0.0617  0.9351 -0.4745
 1644SOL    HW1 5059   1.869   3.171   1.403 -0.0638  0.8861 -0.6191
 1644SOL    HW2 5060   1.987   3.215   1.320 -0.8408  1.1501 -1.6105
 1645SOL     OW 5061   1.097   0.840   0.550 -0.3370  0.6395 -0.0293
 1645SOL    HW1 5062   1.163   0.823   0.617 -0.4564 -0.0154 -0.0763
 1645SOL    HW2 5063   1.131   0.800   0.471 -1.2254 -0.5817  0.1718
 1646SOL     OW 5064   2.535   1.988   3.003 -0.2684  0.0034 -0.7933
 1646SOL    HW1 5065   2.569   1.968   2.916  0.6917  0.7537 -0.6193
 1646SOL    HW2 5066   2.523   1.903   3.045  1.4808 -0.3076 -0.8625
 1647SOL     OW 5067   1.233   3.208   2.226  0.5456 -0.1419  0.3848
 1647SOL    HW1 5068   1.235   3.275   2.157  0.9098 -0.6520 -0.1029
 1647SOL    HW2 5069   1.194   3.253   2.301 -0.8055  0.1378 -0.4391
 1648SOL     OW 5070   1.782   0.897   2.858 -0.3040  0.5247  0.0812
 1648SOL    HW1 5071   1.795   0.992   2.864  1.5207  0.4903 -1.8622
 1648SOL    HW2 5072   1.862   0.865   2.816 -1.2319 -1.7695 -0.0769
 1649SOL     OW 5073   1.672   0.913   0.669  0.0787  0.4215  0.2048
 1649SOL    HW1 5074   1.629   0.962   0.739 -1.1377 -0.2942 -0.0030
 1649SOL    HW2 5075   1.749   0.965   0.646  0.8718  0.3651  2.4874
 1650SOL     OW 5076   1.387   1.429   2.625 -0.0568  0.4711 -0.0297
 1650SOL    HW1 5077   1.474   1.469   2.633 -0.5573  1.5763 -0.0173
 1650SOL    HW2 5078   1.331   1.483   2.679 -0.9634  0.3825 -0.8588
 1651SOL     OW 5079   1.542   3.545   0.929  0.6815  0.2590 -0.0923
 1651SOL    HW1 5080   1.544   3.574   1.020 -1.4160  0.0080  0.0815
 1651SOL    HW2 5081   1.539   3.449   0.934 -0.5539  0.2606 -0.3447
 1652SOL     OW 5082   2.007   1.889   2.868  0.3143  0.1919 -0.4665
 1652SOL    HW1 5083   2.006   1.924   2.779  1.2919  0.0509 -0.5417
 1652SOL    HW2 5084   2.091   1.918   2.904  0.5232 -0.8778 -0.0506
 1653SOL     OW 5085   3.319   3.368   1.610 -0.2779 -0.6859  0.0594
 1653SOL    HW1 5086   3.234   3.390   1.573 -0.7846 -0.1425  1.4815
 1653SOL    HW2 5087   3.382   3.392   1.542 -1.1431  0.6797 -0.2932
 1654SOL     OW 5088   3.494   1.460   2.652 -0.1080  0.2975 -0.0049
 1654SOL    HW1 5089   3.480   1.552   2.630  1.1748  0.3605 -0.6651
 1654SOL    HW2 5090   3.422   1.438   2.711 -2.7484  0.5949 -2.9009
 1655SOL     OW 5091   1.201   1.825   2.885 -0.1133 -0.8138 -0.2822
 1655SOL    HW1 5092   1.162   1.737   2.878 -0.3229 -0.8324  0.8209
 1655SOL    HW2 5093   1.145   1.870   2.948  0.0062  0.1175 -0.8303
 1656SOL     OW 5094   1.609   2.172   3.073  0.1946 -0.5161 -0.5326
 1656SOL    HW1 5095   1.646   2.085   3.083 -1.0676 -0.8928  1.7479
 1656SOL    HW2 5096   1.665   2.229   3.127 -1.9761 -1.0108  2.5553
 1657SOL     OW 5097   0.107   0.885   0.184 -0.0066  0.2164 -0.3958
 1657SOL    HW1 5098   0.148   0.806   0.148 -0.6256  0.0586 -0.7832
 1657SOL    HW2 5099   0.180   0.940   0.210  0.4406 -0.3820 -0.3443
 1658SOL     OW 5100   1.501   1.062   2.246  0.1735  0.0029 -0.1964
 1658SOL    HW1 5101   1.569   1.037   2.309 -0.0913 -0.9172 -0.2566
 1658SOL    HW2 5102   1.419   1.049   2.293  0.0251  3.1696  0.6182
 1659SOL     OW 5103   2.807   0.655   0.270 -0.1521  0.9237  0.1817
 1659SOL    HW1 5104   2.767   0.737   0.299 -1.1488  0.4890  0.0993
 1659SOL    HW2 5105   2.733   0.593   0.266  0.1734  0.6185 -1.9958
 1660SOL     OW 5106   0.352   1.393   2.084  0.2675  0.1286 -0.3604
 1660SOL    HW1 5107   0.368   1.299   2.070 -3.1705 -0.6308 -0.1152
 1660SOL    HW2 5108   0.296   1.396   2.161  0.3676  2.4225 -0.3259
 1661SOL     OW 5109   0.425   1.418   1.614  0.6378 -0.1855 -0.3769
 1661SOL    HW1 5110   0.374   1.449   1.689 -0.0589  0.2275 -1.0187
 1661SOL    HW2 5111   0.514   1.449   1.631 -0.2869  3.8656 -1.8327
 1662SOL     OW 5112   1.565   2.841   0.828 -0.0463 -0.6906  0.4384
 1662SOL    HW1 5113   1.533   2.819   0.916  1.1809 -1.3073  0.7460
 1662SOL    HW2 5114   1.600   2.929   0.836 -0.3770 -0.5562  0.4380
 1663SOL     OW 5115   1.063   2.454   1.233 -0.1165  1.0999  1.1016
 1663SOL    HW1 5116   0.977   2.495   1.240 -0.3375  0.5742  1.6124
 1663SOL    HW2 5117   1.044   2.363   1.210  0.4400  1.8028 -2.9242
 1664SOL     OW 5118   1.004   1.698   3.311  0.1350 -0.4421 -0.2240
 1664SOL    HW1 5119   1.043   1.656   3.388  1.6757  2.4995  0.7422
 1664SOL    HW2 5120   0.924   1.740   3.344 -1.2226 -2.1682 -1.1161
 1665SOL     OW 5121   2.256   1.744   2.047 -0.1356  0.1773 -0.1451
 1665SOL    HW1 5122   2.310   1.673   2.083 -0.8620 -0.2143  0.1976
 1665SOL    HW2 5123   2.168   1.726   2.080 -0.9854 -0.5519 -2.5919
 1666SOL     OW 5124   1.186   2.281   3.587 -0.6074 -0.1676 -0.1858
 1666SOL    HW1 5125   1.154   2.302   3.499  0.1978  2.4156  0.0572
 1666SOL    HW2 5126   1.168   2.360   3.638 -0.9347 -1.5632  1.9844
 1667SOL     OW 5127   0.277   3.556   2.060 -0.0995  0.0403  0.4748
 1667SOL    HW1 5128   0.308   3.559   2.151  0.1157 -0.1438  0.4081
 1667SOL    HW2 5129   0.276   3.648   2.033  0.5326  0.0429  0.4359
 1668SOL     OW 5130   1.176   1.556   1.107 -0.5355  0.2295 -0.3796
 1668SOL    HW1 5131   1.152   1.649   1.111 -1.4587 -0.0162  0.0761
 1668SOL    HW2 5132   1.237   1.543   1.180  0.4562  0.7012 -1.0997
 1669SOL     OW 5133   2.779   0.114   2.503  0.5521 -0.2634  0.2782
 1669SOL    HW1 5134   2.722   0.102   2.580 -0.4522 -1.7575 -0.6463
 1669SOL    HW2 5135   2.813   0.026   2.485 -0.0762 -0.1579 -1.5928
 1670SOL     OW 5136   1.619   1.876  -0.008  0.3161  0.1265  0.1856
 1670SOL    HW1 5137   1.659   1.951   0.037 -0.7364  1.0578 -0.3760
 1670SOL    HW2 5138   1.594   1.817   0.062  1.5505  0.0853  0.6185
 1671SOL     OW 5139   2.445   0.818   0.156  0.0902 -0.0606  0.6886
 1671SOL    HW1 5140   2.478   0.820   0.066 -0.0123 -1.1102  0.6107
 1671SOL    HW2 5141   2.496   0.885   0.202 -1.0406  1.6964 -0.5150
 1672SOL     OW 5142   2.121   3.071   3.641  0.1945 -0.6175 -0.1340
 1672SOL    HW1 5143   2.189   3.138   3.626  1.1487 -1.6117 -0.3738
 1672SOL    HW2 5144   2.059   3.113   3.700  0.8928  0.4116 -0.0973
 1673SOL     OW 5145   1.435   0.750   2.024 -0.1681 -0.1882  0.0938
 1673SOL    HW1 5146   1.513   0.759   1.970 -1.0239  0.5191 -1.0864
 1673SOL    HW2 5147   1.397   0.838   2.025  0.0431 -0.0763  2.2352
 1674SOL     OW 5148   2.470   2.363   0.202 -0.1740  0.1632 -0.2262
 1674SOL    HW1 5149   2.387   2.353   0.155 -0.8003  0.3629  0.8134
 1674SOL    HW2 5150   2.504   2.273   0.210 -1.7088 -0.2998  1.8170
 1675SOL     OW 5151   2.971   1.385   0.425  0.4011  0.4965  0.1065
 1675SOL    HW1 5152   2.943   1.358   0.337 -0.6599  1.4490  0.1276
 1675SOL    HW2 5153   2.998   1.304   0.468  0.5654 -0.0353 -0.9704
 1676SOL     OW 5154   2.974   3.061   3.154 -0.0924  0.4839 -0.3084
 1676SOL    HW1 5155   2.925   3.120   3.096  0.1517  1.3835  0.3896
 1676SOL    HW2 5156   3.005   3.117   3.225  1.6702 -0.1325 -0.5582
 1677SOL     OW 5157   0.179   1.923   0.663  0.4285  0.0835 -0.0132
 1677SOL    HW1 5158   0.085   1.933   0.676  0.5625  0.1939  1.0300
 1677SOL    HW2 5159   0.215   2.010   0.678  0.4007  1.0152 -4.1856
 1678SOL     OW 5160   1.673   0.775   1.887  0.3454 -0.3786  1.0868
 1678SOL    HW1 5161   1.752   0.729   1.862 -0.7420 -0.9370 -1.6873
 1678SOL    HW2 5162   1.694   0.868   1.875  0.5021 -0.5424 -0.0529
 1679SOL     OW 5163   0.200   2.394   2.281 -0.8885 -0.1718  0.3314
 1679SOL    HW1 5164   0.250   2.469   2.313 -0.5694 -0.5341  0.6987
 1679SOL    HW2 5165   0.239   2.319   2.326 -0.5302 -0.6769 -0.7720
 1680SOL     OW 5166   3.058   2.296   2.520 -0.9380 -0.8743  0.7689
 1680SOL    HW1 5167   3.109   2.321   2.443  0.6587 -0.5885  1.8684
 1680SOL    HW2 5168   3.108   2.330   2.594 -2.1279 -1.6456  1.9774
 1681SOL     OW 5169   3.441   1.206   1.370  0.2497  0.2413  0.3998
 1681SOL    HW1 5170   3.496   1.173   1.441 -0.6066 -0.3546  0.7973
 1681SOL    HW2 5171   3.366   1.147   1.368  1.2164 -1.0724 -2.3538
 1682SOL     OW 5172   0.402   1.118   2.381  0.1420 -0.5337  0.8193
 1682SOL    HW1 5173   0.483   1.129   2.332 -0.2149  0.7186  0.4766
 1682SOL    HW2 5174   0.409   1.030   2.419  1.5307 -0.5501  0.5856
 1683SOL     OW 5175   1.779   3.393   1.188  0.3499  0.0906  0.6789
 1683SOL    HW1 5176   1.832   3.390   1.109 -0.6743  0.9829 -0.0659
 1683SOL    HW2 5177   1.829   3.342   1.252  2.7413  1.9299  0.4264
 1684SOL     OW 5178   0.445   2.158   2.888 -0.1935 -0.1630  0.5324
 1684SOL    HW1 5179   0.376   2.210   2.847 -0.3847  0.5649  1.7547
 1684SOL    HW2 5180   0.526   2.191   2.849 -0.5075 -1.2989 -1.2217
 1685SOL     OW 5181   3.203   2.698   1.780  0.1802  0.0919 -0.1348
 1685SOL    HW1 5182   3.210   2.748   1.699  3.4707 -0.7214 -0.4947
 1685SOL    HW2 5183   3.163   2.616   1.754 -0.0961  0.3875 -0.6527
 1686SOL     OW 5184   0.590   0.649   2.180  0.5290  0.5333  0.1107
 1686SOL    HW1 5185   0.643   0.724   2.153  0.0598  1.1268  0.7920
 1686SOL    HW2 5186   0.622   0.627   2.267 -0.6914  1.2731  0.7854
 1687SOL     OW 5187   3.492   0.702   1.796  1.2556  0.0839 -0.0369
 1687SOL    HW1 5188   3.509   0.774   1.857 -1.0745  0.7847 -0.1083
 1687SOL    HW2 5189   3.445   0.744   1.723  0.4343 -1.3803 -0.3841
 1688SOL     OW 5190   2.864   3.359   0.380 -0.2079  0.3544  0.3376
 1688SOL    HW1 5191   2.800   3.334   0.313  1.2364  0.9098 -1.3121
 1688SOL    HW2 5192   2.811   3.376   0.458 -1.9497 -0.3252 -0.6401
 1689SOL     OW 5193   1.995   2.769   1.812  0.0710  0.1075  0.3272
 1689SOL    HW1 5194   2.081   2.810   1.800 -0.1824  0.4930 -0.1577
 1689SOL    HW2 5195   1.951   2.778   1.728 -0.3468 -0.3333  0.4910
 1690SOL     OW 5196   3.689   2.946   1.732 -0.4469  0.2167 -0.1715
 1690SOL    HW1 5197   3.678   3.034   1.695  0.4906  1.2030  1.7581
 1690SOL    HW2 5198   3.738   2.960   1.813  2.3228 -2.3991 -1.2142
 1691SOL     OW 5199   0.401   0.453   2.067  0.1117 -0.1929 -0.9231
 1691SOL    HW1 5200   0.317   0.441   2.022 -1.0556  0.3879  0.9875
 1691SOL    HW2 5201   0.441   0.527   2.023 -1.1241  0.5405 -0.8485
 1692SOL     OW 5202   1.432   0.586   3.461  0.1297  0.3077  0.4479
 1692SOL    HW1 5203   1.509   0.637   3.436  0.1651 -0.2077 -0.5428
 1692SOL    HW2 5204   1.465   0.521   3.523  0.8303 -0.9182 -1.1344
 1693SOL     OW 5205   1.484   3.234   3.004  0.9661 -0.3834 -0.6359
 1693SOL    HW1 5206   1.487   3.329   3.020 -0.4311 -0.5419  0.8760
 1693SOL    HW2 5207   1.405   3.221   2.952 -0.9786 -1.0133  2.2653
 1694SOL     OW 5208   2.251   3.187   2.829  0.2175  0.8237  0.1452
 1694SOL    HW1 5209   2.283   3.277   2.824  2.6847  0.0777  0.9222
 1694SOL    HW2 5210   2.300   3.148   2.902 -0.6070 -1.1980 -0.3112
 1695SOL     OW 5211   3.046   0.375   3.226 -0.4162 -0.3689  0.3537
 1695SOL    HW1 5212   3.044   0.324   3.307  1.6402  2.2298  2.2494
 1695SOL    HW2 5213   3.128   0.350   3.184 -0.4986 -0.2555  0.1222
 1696SOL     OW 5214   0.122   2.318   1.814  0.3748  0.0395 -1.0387
 1696SOL    HW1 5215   0.076   2.246   1.771 -0.6962 -1.5131  2.3395
 1696SOL    HW2 5216   0.069   2.396   1.796 -0.3903 -0.6775 -1.9114
 1697SOL     OW 5217   2.160   3.329   1.449 -0.5082 -0.1834 -0.7695
 1697SOL    HW1 5218   2.183   3.259   1.510  1.1816  0.6825 -0.3456
 1697SOL    HW2 5219   2.065   3.320   1.436 -0.7406 -1.0598  1.1460
 1698SOL     OW 5220   1.349   2.480   1.439  0.0168 -0.0343  0.0067
 1698SOL    HW1 5221   1.315   2.410   1.494 -0.9074 -1.3966 -2.1452
 1698SOL    HW2 5222   1.291   2.555   1.456 -0.6754 -0.6451  0.3775
 1699SOL     OW 5223   1.186   1.600   2.059  0.5300  0.4001  0.2052
 1699SOL    HW1 5224   1.100   1.562   2.039  1.1787 -0.5857 -0.8940
 1699SOL    HW2 5225   1.241   1.575   1.984  1.5509  1.7777  0.4502
 1700SOL     OW 5226   3.379   2.067   1.703  0.1728  0.3039  0.6324
 1700SOL    HW1 5227   3.299   2.019   1.686  0.1178  1.4878 -3.4275
 1700SOL    HW2 5228   3.425   2.015   1.770 -1.3062 -3.5973 -1.1220
 1701SOL     OW 5229   0.010   3.450   1.951 -0.1420 -0.2607 -0.0177
 1701SOL    HW1 5230   0.058   3.402   1.883  0.1385 -1.6675  1.1306
 1701SOL    HW2 5231   0.071   3.519   1.978 -0.5626  0.8396 -1.7155
 1702SOL     OW 5232   2.189   3.594   1.511  0.1776  0.5545 -1.0823
 1702SOL    HW1 5233   2.195   3.499   1.496 -1.7868 -0.1565  1.8390
 1702SOL    HW2 5234   2.107   3.619   1.470 -1.7726 -0.0839  2.1206
 1703SOL     OW 5235   0.779   1.184   1.719  0.1140 -0.2965  0.2439
 1703SOL    HW1 5236   0.779   1.280   1.712  0.7627 -0.2501  0.7667
 1703SOL    HW2 5237   0.857   1.164   1.773  1.2080 -1.2424 -1.5971
 1704SOL     OW 5238   2.790   2.068   1.851 -0.4980  0.4795  0.5409
 1704SOL    HW1 5239   2.753   2.155   1.864 -3.0413 -0.5678  0.8986
 1704SOL    HW2 5240   2.852   2.057   1.923  1.5616  2.7371 -0.7283
 1705SOL     OW 5241   0.808   0.273   0.388 -0.2516  0.4059 -0.3393
 1705SOL    HW1 5242   0.843   0.324   0.461  0.4392  0.2653 -0.5640
 1705SOL    HW2 5243   0.869   0.291   0.316  0.2508 -1.0604 -0.3099
 1706SOL     OW 5244   3.582   2.762   2.931  0.1177 -0.1266 -0.2756
 1706SOL    HW1 5245   3.608   2.825   2.998 -2.1254  0.6818 -0.0882
 1706SOL    HW2 5246   3.494   2.788   2.906 -0.7697 -2.9514 -0.4682
 1707SOL     OW 5247   1.962   2.649   2.831  0.0688  0.3980 -0.3699
 1707SOL    HW1 5248   1.951   2.684   2.920  0.5969  1.2786 -0.6383
 1707SOL    HW2 5249   1.962   2.726   2.775  2.8113  0.1511 -0.8410
 1708SOL     OW 5250   2.829   2.467   3.042 -0.3385 -0.3543  0.6522
 1708SOL    HW1 5251   2.740   2.487   3.072  0.6076  1.2591  2.5241
 1708SOL    HW2 5252   2.827   2.488   2.948 -2.0539 -0.9121  0.5143
 1709SOL     OW 5253   3.003   3.329   0.672 -0.5358  0.1918  0.1814
 1709SOL    HW1 5254   3.000   3.311   0.578  0.5745  1.4717 -0.1305
 1709SOL    HW2 5255   2.923   3.289   0.707 -1.0870 -0.0935 -1.3471
 1710SOL     OW 5256   0.272   0.603   1.075 -0.2582 -0.5965 -0.8029
 1710SOL    HW1 5257   0.317   0.531   1.031  4.0845  1.4600 -0.2743
 1710SOL    HW2 5258   0.299   0.681   1.026 -2.4376  0.9809  0.3433
 1711SOL     OW 5259   2.459   1.448   0.464 -0.5169 -0.1998  0.5981
 1711SOL    HW1 5260   2.536   1.445   0.522  1.6006  0.7644 -1.9806
 1711SOL    HW2 5261   2.449   1.357   0.435  1.1593 -0.0012 -0.7811
 1712SOL     OW 5262   2.601   2.743   0.662  0.2950  0.5059  0.0437
 1712SOL    HW1 5263   2.673   2.727   0.724  0.5295 -0.6563 -0.4936
 1712SOL    HW2 5264   2.635   2.714   0.578 -0.7743  0.0079 -0.2316
 1713SOL     OW 5265   3.390   0.079   0.646 -0.0589  0.0989 -0.0459
 1713SOL    HW1 5266   3.365  -0.012   0.633  2.4002 -1.0930  2.5529
 1713SOL    HW2 5267   3.357   0.101   0.733  1.3601  0.8902  0.3181
 1714SOL     OW 5268   0.391   1.892   0.181 -0.2395 -0.1762 -0.6454
 1714SOL    HW1 5269   0.377   1.799   0.164 -1.4708 -0.2349  0.5169
 1714SOL    HW2 5270   0.303   1.928   0.189  0.2338  0.9107 -0.1425
 1715SOL     OW 5271   3.366   0.529   1.580  0.1255  0.0304  0.5498
 1715SOL    HW1 5272   3.320   0.608   1.608  0.4266  0.2383  0.4539
 1715SOL    HW2 5273   3.418   0.503   1.656  1.4007  0.9268  0.0121
 1716SOL     OW 5274   2.146   0.612   1.793 -0.3459 -0.1394 -0.0231
 1716SOL    HW1 5275   2.168   0.551   1.863 -0.5479  0.6771  0.7733
 1716SOL    HW2 5276   2.050   0.611   1.791 -0.3412 -0.1310 -0.2717
 1717SOL     OW 5277   2.265   2.061   2.027  0.2935 -0.0965 -0.4867
 1717SOL    HW1 5278   2.309   2.056   1.942  1.4254  1.9133 -0.0876
 1717SOL    HW2 5279   2.267   1.972   2.061  3.8678 -0.2180 -0.6311
 1718SOL     OW 5280   0.570   2.146   2.215  0.5500  0.7406 -0.2772
 1718SOL    HW1 5281   0.663   2.134   2.201  0.0084 -1.8040 -2.4572
 1718SOL    HW2 5282   0.530   2.062   2.192 -2.1566  1.0675  2.5000
 1719SOL     OW 5283   2.970   1.825   1.203 -0.4335  0.2688  0.0095
 1719SOL    HW1 5284   2.979   1.863   1.115 -0.9397 -0.2867 -0.2928
 1719SOL    HW2 5285   2.953   1.732   1.187 -1.2578  0.2976  0.6679
 1720SOL     OW 5286   2.110   2.245   1.478  0.2330  0.0541 -0.9760
 1720SOL    HW1 5287   2.112   2.243   1.574 -1.0360  1.7510 -0.8639
 1720SOL    HW2 5288   2.181   2.187   1.451  0.2107 -0.9574  0.9765
 1721SOL     OW 5289   1.297   2.111   1.226  0.1124  0.4417 -0.4451
 1721SOL    HW1 5290   1.311   2.183   1.289  1.1547 -0.2080  0.0871
 1721SOL    HW2 5291   1.224   2.141   1.172  0.7761  2.0882 -0.4932
 1722SOL     OW 5292   0.864   2.151   0.049  0.5346  0.0831  0.2730
 1722SOL    HW1 5293   0.913   2.166   0.130  0.4651  1.4706  0.0855
 1722SOL    HW2 5294   0.926   2.173  -0.021 -0.3090  1.8973  0.0308
 1723SOL     OW 5295   1.043   0.202   1.953  0.3834 -0.5379 -0.6631
 1723SOL    HW1 5296   0.962   0.151   1.953 -0.6829  1.0473  0.3960
 1723SOL    HW2 5297   1.050   0.237   1.864  0.4342 -1.4677 -1.0292
 1724SOL     OW 5298   2.756   1.864   1.000  0.1099  0.8691  0.3683
 1724SOL    HW1 5299   2.780   1.941   0.949 -0.6683  1.4913  0.9089
 1724SOL    HW2 5300   2.661   1.869   1.008  0.0197 -0.2786  0.2230
 1725SOL     OW 5301   0.795   1.235   0.787 -0.4037  0.3089 -0.3967
 1725SOL    HW1 5302   0.842   1.168   0.737 -0.3837 -1.4065  1.7508
 1725SOL    HW2 5303   0.712   1.247   0.739 -0.9014 -2.1199 -0.2808
 1726SOL     OW 5304   3.288   1.081   2.569  0.1348 -0.0640  0.5294
 1726SOL    HW1 5305   3.228   1.151   2.597  1.0506  0.5702  0.9403
 1726SOL    HW2 5306   3.358   1.126   2.523  0.7641 -0.6989  0.8407
 1727SOL     OW 5307   1.695   1.229   1.097  0.3712  0.0680  0.3581
 1727SOL    HW1 5308   1.717   1.139   1.123  2.6395  0.4183 -0.1141
 1727SOL    HW2 5309   1.771   1.258   1.046 -0.0325  2.4678  0.9990
 1728SOL     OW 5310   3.652   0.363   2.637  0.4349 -0.7156  0.7445
 1728SOL    HW1 5311   3.720   0.406   2.585  0.4168 -0.7623  0.6829
 1728SOL    HW2 5312   3.569   0.396   2.602  0.4381  0.0125  1.3877
 1729SOL     OW 5313   2.468   1.766   3.122 -0.4136 -0.4708 -0.2243
 1729SOL    HW1 5314   2.525   1.698   3.158 -0.9624 -0.3614  0.8909
 1729SOL    HW2 5315   2.385   1.721   3.106 -1.7624  0.4344  3.2380
 1730SOL     OW 5316   0.537   1.080   2.830 -1.0596  0.6642 -0.2635
 1730SOL    HW1 5317   0.465   1.086   2.892 -1.6540  2.4925 -1.0788
 1730SOL    HW2 5318   0.528   1.157   2.774  0.9938  0.4610 -0.9689
 1731SOL     OW 5319   0.036   0.467   2.382 -0.3265 -0.0493 -0.2681
 1731SOL    HW1 5320  -0.053   0.492   2.406  0.5027  2.0998  0.8081
 1731SOL    HW2 5321   0.036   0.467   2.286 -1.0563  1.7478 -0.3046
 1732NA      NA 5322   1.753   2.973   2.307 -0.2596 -0.0303  0.6013
 1733NA      NA 5323   3.521   0.053   0.385 -0.2780 -0.6818  0.1645
   3.70360   3.70360   3.70360
