Protein in water
 5428
    0TYR      N    1   2.677   2.245   1.103 -0.5629 -0.1913 -0.2495
    0TYR     H1    2   2.756   2.243   1.171 -1.0871  2.4097  0.5698
    0TYR     H2    3   2.631   2.336   1.125  0.9271  1.1774 -2.5035
    0TYR     H3    4   2.732   2.253   1.016  0.1345 -1.0817  0.1010
    0TYR     CA    5   2.593   2.116   1.114  0.7616 -0.1658  0.6665
    0TYR     HA    6   2.542   2.125   1.020  3.6073  0.0112 -0.9575
    0TYR     CB    7   2.686   1.995   1.137  0.6359  0.2620 -0.5244
    0TYR    HB1    8   2.721   1.984   1.242  0.1376 -2.8065 -0.5813
    0TYR    HB2    9   2.778   2.005   1.075  0.8166 -2.0971 -0.7230
    0TYR     CG   10   2.627   1.870   1.087 -0.0220 -0.5002  0.2705
    0TYR    CD1   11   2.621   1.762   1.177  0.5166 -0.1293 -0.3189
    0TYR    HD1   12   2.658   1.779   1.277  0.9739  0.7889 -0.6328
    0TYR    CE1   13   2.581   1.631   1.128  0.0681  0.2285  0.4779
    0TYR    HE1   14   2.562   1.549   1.195 -0.5116 -1.2741 -1.4394
    0TYR     CZ   15   2.545   1.623   0.996 -0.1119  0.2619  0.6407
    0TYR     OH   16   2.508   1.499   0.932  0.1935 -0.6149 -0.0143
    0TYR     HH   17   2.492   1.435   1.002  1.2023 -0.7569  0.1013
    0TYR    CD2   18   2.594   1.855   0.953  0.4941  0.0998  0.8046
    0TYR    HD2   19   2.613   1.946   0.898 -1.1881 -0.1467 -0.2715
    0TYR    CE2   20   2.560   1.732   0.904  0.7006 -0.9613 -0.8684
    0TYR    HE2   21   2.552   1.728   0.796  0.9995 -0.7084 -0.9024
    0TYR      C   22   2.493   2.134   1.228 -0.4840 -0.3187 -0.0585
    0TYR      O   23   2.372   2.146   1.204 -0.3512 -0.6525  0.2144
    1TYR      N   24   2.530   2.126   1.356  0.2869  0.0904 -0.0545
    1TYR     HN   25   2.623   2.096   1.373  0.6567  1.0885 -0.2737
    1TYR     CA   26   2.446   2.148   1.472 -0.5018  0.0718  0.1251
    1TYR     HA   27   2.355   2.200   1.446 -0.2910  1.8041  2.5465
    1TYR     CB   28   2.428   2.009   1.556  0.1944 -0.1445 -0.2426
    1TYR    HB1   29   2.366   2.023   1.648  1.5294 -0.7634  0.7867
    1TYR    HB2   30   2.531   1.976   1.579  0.3006  0.4138  0.1084
    1TYR     CG   31   2.374   1.889   1.489  0.3928 -0.3125 -0.0680
    1TYR    CD1   32   2.255   1.914   1.414 -0.0788  0.0510 -0.1503
    1TYR    HD1   33   2.223   2.017   1.405  3.9950  1.5123  0.0325
    1TYR    CE1   34   2.180   1.811   1.366  0.3120 -0.7669  0.0462
    1TYR    HE1   35   2.087   1.822   1.312 -0.4412 -3.2147  0.7035
    1TYR     CZ   36   2.234   1.684   1.382  0.8281  0.0199  1.1289
    1TYR     OH   37   2.154   1.587   1.320  0.0108  0.7765 -0.1313
    1TYR     HH   38   2.186   1.498   1.336  2.1960  1.6036  0.4154
    1TYR    CD2   39   2.426   1.762   1.506 -0.3595  1.0913 -0.6164
    1TYR    HD2   40   2.508   1.745   1.574  1.5183  2.5106 -2.3914
    1TYR    CE2   41   2.358   1.657   1.445  0.0566  0.4920 -0.0542
    1TYR    HE2   42   2.397   1.559   1.471 -1.0060  0.7250  2.8454
    1TYR      C   43   2.511   2.257   1.562 -0.8101 -0.2484  0.4589
    1TYR      O   44   2.632   2.260   1.581  0.0671 -0.2849 -1.2568
    2ASP      N   45   2.439   2.358   1.611  0.3660 -1.6046  0.2260
    2ASP     HN   46   2.341   2.370   1.595  0.5425 -0.9738 -0.4361
    2ASP     CA   47   2.505   2.471   1.683 -0.2818  0.8244 -0.0280
    2ASP     HA   48   2.584   2.507   1.618  2.3753 -0.1600  2.4617
    2ASP     CB   49   2.408   2.594   1.692 -0.8388 -0.1500  0.2367
    2ASP    HB1   50   2.458   2.690   1.716  0.2497 -0.6589  0.1051
    2ASP    HB2   51   2.330   2.587   1.771 -0.2138  3.1440  1.3216
    2ASP     CG   52   2.342   2.616   1.560 -0.3252  0.0084  1.5294
    2ASP    OD1   53   2.415   2.651   1.460  0.0178 -0.4390  0.4951
    2ASP    OD2   54   2.222   2.586   1.540 -0.2559 -0.4382 -0.6763
    2ASP      C   55   2.579   2.439   1.816  0.1628 -0.6882  0.5267
    2ASP      O   56   2.536   2.359   1.897  0.9713 -0.7637  0.2346
    3PRO      N   57   2.682   2.506   1.854 -0.5953  1.0831  0.2955
    3PRO     CD   58   2.742   2.623   1.793  0.4765  0.3722  0.6096
    3PRO    HD1   59   2.791   2.580   1.703 -2.5078 -3.5797  0.6213
    3PRO    HD2   60   2.666   2.703   1.778  0.4501  0.5583  1.6548
    3PRO     CA   61   2.765   2.458   1.968  0.4146 -0.7424 -0.0484
    3PRO     HA   62   2.787   2.352   1.969 -2.2053 -1.3658  0.4112
    3PRO     CB   63   2.898   2.537   1.945 -0.2575  0.6900 -0.2249
    3PRO    HB1   64   2.947   2.466   1.874 -0.4448 -0.1220  0.4373
    3PRO    HB2   65   2.958   2.541   2.038 -0.9974  1.8529  0.2217
    3PRO     CG   66   2.859   2.668   1.881 -0.3218  0.5272  0.4172
    3PRO    HG1   67   2.934   2.713   1.813  1.5903 -0.5865  1.6903
    3PRO    HG2   68   2.823   2.742   1.956 -0.8414  0.9486 -0.2322
    3PRO      C   69   2.709   2.490   2.100  0.1504  0.9783 -0.3830
    3PRO      O   70   2.665   2.605   2.122 -0.4120  0.4485 -0.3683
    4GLU      N   71   2.702   2.394   2.195  0.1183 -0.3664 -0.4992
    4GLU     HN   72   2.729   2.301   2.173  0.0258 -1.0348  1.9828
    4GLU     CA   73   2.641   2.424   2.328  0.0832 -0.0026  0.0220
    4GLU     HA   74   2.539   2.456   2.316 -0.4437 -1.2400  1.1127
    4GLU     CB   75   2.624   2.301   2.414  0.2058  0.6208 -1.3292
    4GLU    HB1   76   2.567   2.232   2.348 -0.9937 -0.1420  0.4363
    4GLU    HB2   77   2.579   2.321   2.513  0.6086  0.8585 -1.1906
    4GLU     CG   78   2.764   2.234   2.457  0.0168 -0.6446 -0.8325
    4GLU    HG1   79   2.821   2.301   2.526 -2.2975  2.4389 -1.6872
    4GLU    HG2   80   2.820   2.222   2.362  0.5075  2.8423 -1.1282
    4GLU     CD   81   2.752   2.106   2.529  0.1266  0.2223  1.2422
    4GLU    OE1   82   2.688   2.094   2.641 -0.4857  0.0776 -0.3252
    4GLU    OE2   83   2.790   1.997   2.465 -0.8743 -0.2454  0.0554
    4GLU      C   84   2.717   2.528   2.413  0.0635 -0.5890  0.4599
    4GLU      O   85   2.664   2.599   2.497  0.0038 -0.7374  0.5956
    5THR      N   86   2.855   2.536   2.392  1.1824  0.0657  0.4461
    5THR     HN   87   2.881   2.463   2.330  1.1672  0.2074  0.2712
    5THR     CA   88   2.949   2.622   2.459  0.6074  0.0622 -0.2834
    5THR     HA   89   2.914   2.636   2.560  0.7970 -0.2101 -0.1783
    5THR     CB   90   3.084   2.559   2.454 -0.5850  0.0532 -0.2794
    5THR     HB   91   3.165   2.631   2.479 -0.1188 -0.2249 -0.9528
    5THR    OG1   92   3.122   2.503   2.329  0.0566 -0.5162  0.6180
    5THR    HG1   93   3.214   2.480   2.340 -0.5522 -4.5683 -0.9507
    5THR    CG2   94   3.077   2.454   2.560 -0.4870 -0.3100  0.3712
    5THR   HG21   95   3.034   2.487   2.657 -1.7982  0.7474 -0.5229
    5THR   HG22   96   3.175   2.404   2.579  0.6171  1.5460 -0.1187
    5THR   HG23   97   3.012   2.377   2.514  1.2155 -1.6550  0.1069
    5THR      C   98   2.956   2.754   2.405 -0.6598  0.3794 -0.0696
    5THR      O   99   3.023   2.842   2.456  0.0112  0.3109 -0.2218
    6GLY      N  100   2.879   2.773   2.288  0.2927 -0.4671 -0.5846
    6GLY     HN  101   2.828   2.694   2.253  0.5332 -1.0856  0.4202
    6GLY     CA  102   2.856   2.898   2.221  0.2103 -0.5100  0.3656
    6GLY    HA1  103   2.800   2.862   2.136  0.4083  0.3321 -0.1299
    6GLY    HA2  104   2.954   2.939   2.199  0.4758 -2.3002 -2.2472
    6GLY      C  105   2.777   3.008   2.288  1.2590  0.1888  0.3373
    6GLY      O  106   2.761   3.022   2.410 -0.5146 -0.5996 -0.0471
    7THR      N  107   2.707   3.088   2.205 -0.1923 -0.3293 -0.5844
    7THR     HN  108   2.716   3.077   2.106 -0.2497 -0.9818 -0.5209
    7THR     CA  109   2.631   3.207   2.245 -0.3946 -0.0267  0.2139
    7THR     HA  110   2.665   3.236   2.343 -2.3367 -2.9362  1.9199
    7THR     CB  111   2.655   3.333   2.157 -0.5836 -0.3688 -0.0201
    7THR     HB  112   2.614   3.312   2.056 -0.0629  1.3135 -0.6232
    7THR    OG1  113   2.790   3.371   2.147 -0.0454  0.3414 -0.1230
    7THR    HG1  114   2.836   3.288   2.133 -0.8547 -0.3338  0.9736
    7THR    CG2  115   2.583   3.457   2.213 -0.0830 -0.2363  0.0119
    7THR   HG21  116   2.588   3.456   2.324  1.2779 -1.2118 -0.0415
    7THR   HG22  117   2.477   3.441   2.182  0.0823 -1.3927  0.0315
    7THR   HG23  118   2.620   3.550   2.165  0.7600 -1.5116 -1.9382
    7THR      C  119   2.482   3.175   2.259  0.5444 -0.1267 -0.2250
    7THR      O  120   2.407   3.143   2.166  0.0716  1.1475 -0.1760
    8TRP      N  121   2.428   3.173   2.380 -0.2268  0.5354 -0.4166
    8TRP     HN  122   2.489   3.188   2.458  1.9844  3.3842 -2.4474
    8TRP     CA  123   2.298   3.121   2.411 -0.2444 -0.1402 -0.6422
    8TRP     HA  124   2.232   3.136   2.326 -0.3836  0.7095 -0.3977
    8TRP     CB  125   2.295   2.970   2.456 -0.7290 -0.3605 -0.0579
    8TRP    HB1  126   2.197   2.951   2.504  0.0364 -2.5099  0.7659
    8TRP    HB2  127   2.375   2.957   2.532  0.3173 -1.4758 -1.3009
    8TRP     CG  128   2.323   2.867   2.347 -0.1821 -0.4861 -0.1140
    8TRP    CD1  129   2.444   2.820   2.298  0.0631 -0.8520 -0.7300
    8TRP    HD1  130   2.536   2.872   2.319 -1.6837  1.1930  3.1388
    8TRP    NE1  131   2.420   2.717   2.212 -0.0396  0.5789  0.3959
    8TRP    HE1  132   2.493   2.674   2.162 -1.7345 -1.3545 -0.5784
    8TRP    CE2  133   2.287   2.695   2.193  0.3183  0.3228  0.3493
    8TRP    CD2  134   2.221   2.788   2.278  0.0667  0.6104  0.0397
    8TRP    CE3  135   2.081   2.800   2.263 -0.1500 -0.1074 -0.0808
    8TRP    HE3  136   2.020   2.862   2.328 -1.6692  0.4213 -1.9231
    8TRP    CZ3  137   2.017   2.723   2.168  0.5799  0.7795 -0.1817
    8TRP    HZ3  138   1.911   2.739   2.153  0.1134 -2.1419 -0.5895
    8TRP    CZ2  139   2.223   2.616   2.102  0.5249 -0.2620  0.5954
    8TRP    HZ2  140   2.276   2.543   2.042  3.1189  0.6021  1.6988
    8TRP    CH2  141   2.084   2.633   2.087 -1.1177 -0.0667 -0.5535
    8TRP    HH2  142   2.030   2.575   2.014 -1.1874  0.2934 -0.7949
    8TRP      C  143   2.242   3.218   2.516 -0.3592  0.3442 -0.1809
    8TRP      O  144   2.237   3.182   2.638  0.5074 -0.1017  0.0792
    9GLU      N  145   2.196   3.341   2.474 -0.7870 -0.3715 -0.3763
    9GLU     HN  146   2.201   3.358   2.376 -1.0909  0.9551 -0.1800
    9GLU     CA  147   2.133   3.443   2.553 -0.1867 -0.0564  0.5643
    9GLU     HA  148   2.184   3.444   2.648  1.5266  0.2362 -0.3230
    9GLU     CB  149   2.156   3.577   2.481  0.4180  0.8535  0.0697
    9GLU    HB1  150   2.107   3.586   2.382  0.4812  0.6413  0.0190
    9GLU    HB2  151   2.266   3.587   2.468  0.5317  1.1518  1.1642
    9GLU     CG  152   2.111   3.693   2.572 -0.4419  0.2633  0.7670
    9GLU    HG1  153   2.001   3.703   2.572 -0.3609  1.4218  1.5425
    9GLU    HG2  154   2.136   3.658   2.674  0.3936 -0.1765  0.4200
    9GLU     CD  155   2.174   3.823   2.538 -0.2633  0.4788  0.0185
    9GLU    OE1  156   2.270   3.831   2.460 -0.1374 -0.3703  0.4488
    9GLU    OE2  157   2.119   3.932   2.576 -0.5651  0.1072  0.1076
    9GLU      C  158   1.985   3.403   2.558  0.5197  0.4404  0.8719
    9GLU    OT1  159   1.934   3.360   2.668  0.3432 -0.6630 -0.3509
    9GLU    OT2  160   1.904   3.410   2.455  0.4836 -0.1100 -0.7749
   10SOL     OW  161   2.899   3.405   1.798  0.2285  0.5557 -0.5745
   10SOL    HW1  162   2.955   3.361   1.734  0.2501 -0.0585 -0.1473
   10SOL    HW2  163   2.810   3.381   1.772  0.2497  0.0333 -0.1971
   11SOL     OW  164   1.341   2.370   0.071  0.0757  0.1276  0.3558
   11SOL    HW1  165   1.412   2.434   0.076  0.1762 -0.0647  1.6846
   11SOL    HW2  166   1.383   2.286   0.091 -0.2421 -0.2238 -0.3994
   12SOL     OW  167   2.757   0.676   3.009 -0.3315 -0.2276 -0.5106
   12SOL    HW1  168   2.777   0.733   3.084 -0.5368  2.7639 -2.5626
   12SOL    HW2  169   2.664   0.655   3.020 -0.0750 -0.8165  0.6650
   13SOL     OW  170   3.683   2.649   0.638 -0.4477 -0.1088 -0.2849
   13SOL    HW1  171   3.630   2.575   0.668  0.4086 -1.1890 -1.3525
   13SOL    HW2  172   3.635   2.726   0.668 -1.8275 -1.0755  0.0956
   14SOL     OW  173   1.711   0.951   0.064  0.7823  0.0815 -0.1304
   14SOL    HW1  174   1.727   1.037   0.026 -2.9473  1.2028  0.4404
   14SOL    HW2  175   1.675   0.900  -0.008 -2.7378  1.0406  0.7679
   15SOL     OW  176   3.124   2.374   0.229 -0.2850 -0.0894  0.2900
   15SOL    HW1  177   3.058   2.336   0.286  2.3069 -1.5944  2.5340
   15SOL    HW2  178   3.197   2.312   0.231  1.3783  1.6073 -1.7692
   16SOL     OW  179   3.196   1.154   3.288 -0.1676  0.0008  0.4883
   16SOL    HW1  180   3.209   1.185   3.198 -0.9208  0.2180  0.4425
   16SOL    HW2  181   3.136   1.218   3.326  0.4152  0.0989  1.2576
   17SOL     OW  182   0.494   3.690   2.090 -0.2702  0.3721 -0.5714
   17SOL    HW1  183   0.553   3.625   2.052 -1.8292 -1.7710  0.4407
   17SOL    HW2  184   0.418   3.690   2.031 -0.7659  0.3989  0.0529
   18SOL     OW  185   2.967   3.185   1.988  0.3443  0.1947  0.5344
   18SOL    HW1  186   2.992   3.245   1.918  1.0340 -0.7360 -0.0433
   18SOL    HW2  187   2.895   3.134   1.952  2.7621 -2.5334 -0.8192
   19SOL     OW  188   1.010   3.514   1.017  0.3469 -0.1946  0.1387
   19SOL    HW1  189   1.097   3.515   1.057  0.4395 -1.9420  0.0598
   19SOL    HW2  190   0.967   3.593   1.050  1.8234  0.5226  0.4492
   20SOL     OW  191   0.148   2.871   0.039 -0.4381  0.3724  0.3103
   20SOL    HW1  192   0.137   2.906   0.128 -0.3047  2.5056 -0.4433
   20SOL    HW2  193   0.242   2.880   0.022 -0.3753 -0.5663  0.1476
   21SOL     OW  194   3.458   3.262   0.416  0.2541 -0.2304 -0.2945
   21SOL    HW1  195   3.450   3.319   0.339  0.0747 -0.5887 -0.5430
   21SOL    HW2  196   3.473   3.322   0.489 -0.8283  0.2080 -0.4096
   22SOL     OW  197   0.422   1.791   2.286 -0.4250 -0.0358 -0.0312
   22SOL    HW1  198   0.492   1.811   2.224 -1.9240 -0.7872 -2.0627
   22SOL    HW2  199   0.467   1.750   2.360  1.4226  0.8369 -0.6050
   23SOL     OW  200   3.392   0.159   3.529 -0.0712  0.5495  0.4029
   23SOL    HW1  201   3.337   0.113   3.466  0.4880 -0.6874  0.8004
   23SOL    HW2  202   3.349   0.145   3.613  0.7920 -0.3846  0.7104
   24SOL     OW  203   0.898   2.260   1.845 -0.0576  0.4352  0.0255
   24SOL    HW1  204   0.982   2.216   1.834 -0.8360 -1.5270  1.3722
   24SOL    HW2  205   0.858   2.257   1.757 -0.4371 -2.4596  0.1897
   25SOL     OW  206   0.392   0.683   0.256 -0.5633  0.5483 -0.4678
   25SOL    HW1  207   0.391   0.591   0.280 -3.0067  0.8735  1.0559
   25SOL    HW2  208   0.443   0.726   0.326  1.0126  0.3614 -1.4458
   26SOL     OW  209   0.216   2.233   0.928  0.0242  0.4652  0.2885
   26SOL    HW1  210   0.270   2.230   0.848  1.5664 -3.0540  1.2807
   26SOL    HW2  211   0.276   2.264   0.996 -0.7450  1.5736  0.4857
   27SOL     OW  212   0.819   1.890   2.795  0.3982 -0.3234  0.0794
   27SOL    HW1  213   0.778   1.856   2.715 -0.3946  0.5801  0.0890
   27SOL    HW2  214   0.849   1.811   2.841 -0.7154 -0.9810 -0.2664
   28SOL     OW  215   1.834   3.404   2.043  0.4026 -0.1444  0.1290
   28SOL    HW1  216   1.755   3.351   2.040 -0.8967  1.7121 -1.8649
   28SOL    HW2  217   1.815   3.472   2.107  0.7327 -0.1625  0.2506
   29SOL     OW  218   0.050   3.042   2.572 -0.7679 -0.3794 -0.5986
   29SOL    HW1  219   0.060   3.061   2.479 -1.6085  0.0475 -0.6026
   29SOL    HW2  220  -0.042   3.019   2.582 -0.6892 -0.3815  0.1401
   30SOL     OW  221   0.337   2.863   2.509  0.0450 -0.3557  0.3220
   30SOL    HW1  222   0.387   2.782   2.499  0.2305 -0.4976  2.1293
   30SOL    HW2  223   0.307   2.862   2.600 -0.0780  1.5408  0.3456
   31SOL     OW  224   0.829   1.817   1.487 -0.1812 -0.1088  0.5554
   31SOL    HW1  225   0.874   1.826   1.571  2.4835  0.2864 -0.8047
   31SOL    HW2  226   0.860   1.734   1.452 -0.1787  0.3664 -0.6065
   32SOL     OW  227   0.101   3.101   2.324  0.3752  0.4808 -0.8330
   32SOL    HW1  228   0.067   3.188   2.307 -0.3972  0.2451 -0.5526
   32SOL    HW2  229   0.195   3.114   2.338 -0.2623  2.0581  4.0986
   33SOL     OW  230   1.963   2.623   1.505  0.1947 -0.0819  0.7403
   33SOL    HW1  231   2.058   2.633   1.508  0.1682  1.8223 -1.5829
   33SOL    HW2  232   1.935   2.628   1.596  2.3433 -1.3373  1.5245
   34SOL     OW  233   1.640   0.816   0.966 -0.2114  0.5995 -0.9099
   34SOL    HW1  234   1.734   0.832   0.952  1.5141 -0.4084  5.9313
   34SOL    HW2  235   1.626   0.727   0.934  0.5278  1.3374 -3.5594
   35SOL     OW  236   3.358   2.373   2.348 -0.0275 -0.0041  0.9334
   35SOL    HW1  237   3.408   2.329   2.417 -1.7117 -1.3965  1.3314
   35SOL    HW2  238   3.366   2.316   2.272 -1.2686 -0.4461  1.1099
   36SOL     OW  239   1.268   3.443   2.532 -1.0716  0.2129 -0.1063
   36SOL    HW1  240   1.273   3.351   2.506  1.0631  0.1591  0.3236
   36SOL    HW2  241   1.328   3.488   2.472 -0.6252  1.0016  0.9028
   37SOL     OW  242   1.001   1.058   3.448 -0.8998  0.6774 -0.1406
   37SOL    HW1  243   0.988   1.055   3.543  0.4838 -1.5037  0.0624
   37SOL    HW2  244   0.913   1.055   3.411 -1.4724  1.7565  1.0544
   38SOL     OW  245   1.837   1.824   1.264 -0.4173  0.8392 -0.0089
   38SOL    HW1  246   1.746   1.795   1.267 -0.3346  0.5184 -0.5899
   38SOL    HW2  247   1.886   1.755   1.308 -0.0669 -0.5575 -2.4047
   39SOL     OW  248   3.349   3.553   3.197 -0.5940 -0.4024  0.1093
   39SOL    HW1  249   3.415   3.488   3.172  0.3582  0.3898  0.4679
   39SOL    HW2  250   3.281   3.545   3.130  0.1995 -0.7609 -0.6793
   40SOL     OW  251   1.830   2.919   1.518  0.0806 -0.0977 -0.6425
   40SOL    HW1  252   1.797   2.946   1.432 -2.2076  1.3026  0.5845
   40SOL    HW2  253   1.789   2.834   1.534  0.9135 -0.6021 -1.1155
   41SOL     OW  254   3.486   1.475   2.827 -0.3411  0.0531 -0.3865
   41SOL    HW1  255   3.515   1.562   2.802  0.7811 -0.4502 -0.9010
   41SOL    HW2  256   3.464   1.483   2.920 -0.1698  0.8644 -0.4132
   42SOL     OW  257   3.264   3.014   1.294  0.4476  0.4705 -0.5056
   42SOL    HW1  258   3.282   3.019   1.200  1.7396  1.2681 -0.2473
   42SOL    HW2  259   3.171   3.033   1.301  0.4379  0.9386 -1.5913
   43SOL     OW  260   0.765   0.639   0.657  0.6922 -0.6886 -0.6231
   43SOL    HW1  261   0.778   0.723   0.614 -3.5797  0.5352  0.0176
   43SOL    HW2  262   0.745   0.579   0.585  0.6383 -0.3893 -0.8592
   44SOL     OW  263   3.638   0.993   0.090  0.5693 -0.0779  0.5554
   44SOL    HW1  264   3.595   1.038   0.163 -0.9455 -1.9363  0.9119
   44SOL    HW2  265   3.723   0.965   0.125  0.1570 -0.3130  1.3867
   45SOL     OW  266   3.471   2.823   2.778 -0.0903  0.3614 -0.0787
   45SOL    HW1  267   3.541   2.888   2.771 -0.5052  0.7378 -0.8251
   45SOL    HW2  268   3.407   2.863   2.837  0.5839 -0.2363  1.0915
   46SOL     OW  269   0.353   1.493   1.899 -0.2355  0.2871 -0.7944
   46SOL    HW1  270   0.400   1.551   1.958 -0.1900 -0.4634 -0.0726
   46SOL    HW2  271   0.419   1.466   1.835  0.1587 -0.2195 -0.1899
   47SOL     OW  272   0.429   2.321   1.107  0.1919 -0.2187  0.4306
   47SOL    HW1  273   0.396   2.263   1.176  0.5442 -2.9851 -1.5381
   47SOL    HW2  274   0.513   2.353   1.140  0.5587 -1.8052  1.1497
   48SOL     OW  275   1.753   2.905   0.817  0.0217  0.1344 -0.3278
   48SOL    HW1  276   1.825   2.956   0.854  0.3809 -2.4623  3.0227
   48SOL    HW2  277   1.674   2.956   0.838  0.6440  1.6671 -1.5743
   49SOL     OW  278   1.665   3.258   2.419 -0.4945  0.3737  0.5072
   49SOL    HW1  279   1.746   3.300   2.390 -1.5610  2.5419  0.4489
   49SOL    HW2  280   1.683   3.231   2.509 -0.3374  2.9173  1.3419
   50SOL     OW  281   0.109   3.560   1.529  0.3511 -0.2397  0.7332
   50SOL    HW1  282   0.073   3.473   1.542  1.1817 -0.6720  0.2375
   50SOL    HW2  283   0.162   3.553   1.450 -1.1146  1.2181 -0.4519
   51SOL     OW  284   3.124   3.264   0.738 -0.0914  0.2981  0.5043
   51SOL    HW1  285   3.137   3.351   0.699  0.0970 -0.2374 -0.6773
   51SOL    HW2  286   3.031   3.263   0.760 -0.1297  0.7467  0.3916
   52SOL     OW  287   3.311   1.873   0.264  0.3243 -0.5048 -0.7285
   52SOL    HW1  288   3.289   1.781   0.252 -1.6587 -0.2055  0.1918
   52SOL    HW2  289   3.253   1.903   0.334 -0.0473  1.7805 -1.9136
   53SOL     OW  290   0.812   1.152   2.673 -0.0128  0.3916  1.0497
   53SOL    HW1  291   0.798   1.188   2.586  1.5103  1.8912  1.3834
   53SOL    HW2  292   0.746   1.083   2.681 -0.2958  0.3273 -1.2044
   54SOL     OW  293   2.185   2.649   0.120  0.2199  0.0705 -0.7183
   54SOL    HW1  294   2.223   2.729   0.086  0.0772  0.2400 -0.4785
   54SOL    HW2  295   2.096   2.648   0.085  0.3670 -0.2101 -1.0906
   55SOL     OW  296   0.653   2.592   1.628  0.6237 -0.1517  0.5936
   55SOL    HW1  297   0.643   2.565   1.719  0.8417  0.3530  0.7688
   55SOL    HW2  298   0.678   2.684   1.633  1.8359 -0.4341  0.0713
   56SOL     OW  299   3.018   2.139   1.968  0.2216 -0.1841 -0.5222
   56SOL    HW1  300   3.044   2.189   2.045  1.8463 -1.7471  0.0146
   56SOL    HW2  301   2.943   2.087   1.996  0.9068 -0.8695  0.1090
   57SOL     OW  302   3.251   0.221   2.760 -0.1072 -0.2390  0.1249
   57SOL    HW1  303   3.220   0.302   2.720 -1.3769 -0.7639  0.0017
   57SOL    HW2  304   3.312   0.184   2.696 -2.4099 -1.2842 -1.6070
   58SOL     OW  305   2.578   1.677   2.262  0.0829  0.2634 -0.0083
   58SOL    HW1  306   2.576   1.617   2.187 -0.7553  1.4161 -0.9517
   58SOL    HW2  307   2.563   1.764   2.223  1.1476  1.0859  1.3219
   59SOL     OW  308   3.142   3.525   1.300  0.3378 -0.2212  0.2974
   59SOL    HW1  309   3.072   3.580   1.266 -0.1681 -0.9923  0.0463
   59SOL    HW2  310   3.108   3.492   1.383  0.9773  0.5032  0.8519
   60SOL     OW  311   2.964   2.827   0.554  0.0296  0.5639  0.4266
   60SOL    HW1  312   2.904   2.765   0.510  0.5907  1.3459 -1.5520
   60SOL    HW2  313   3.030   2.771   0.594 -0.2803 -0.1875 -0.0736
   61SOL     OW  314   0.085   0.843   2.941  0.3278  0.2927 -0.0558
   61SOL    HW1  315   0.030   0.811   3.012 -0.1046 -1.4784 -1.1317
   61SOL    HW2  316   0.064   0.936   2.934 -0.8723  0.1304  1.0078
   62SOL     OW  317   3.246   0.203   2.247 -0.4972 -0.1633  0.4869
   62SOL    HW1  318   3.253   0.141   2.319 -0.5946 -2.1148 -1.0922
   62SOL    HW2  319   3.246   0.149   2.168  0.7195  1.9320 -1.0647
   63SOL     OW  320   0.632   1.633   2.791  0.3408  0.8067  0.5500
   63SOL    HW1  321   0.594   1.647   2.878 -0.7522 -0.5887  0.3308
   63SOL    HW2  322   0.681   1.551   2.800 -0.9513 -0.1108 -0.4981
   64SOL     OW  323   1.848   2.868   3.077 -0.3663  0.2271  1.2239
   64SOL    HW1  324   1.810   2.780   3.074  0.1995 -0.0814  2.3969
   64SOL    HW2  325   1.927   2.861   3.023  0.2932 -0.3217  2.2286
   65SOL     OW  326   3.208   2.723   2.783 -0.0151  0.1572  0.1262
   65SOL    HW1  327   3.240   2.730   2.873  2.3715  0.3038 -0.6784
   65SOL    HW2  328   3.246   2.797   2.737 -1.0845  0.0098 -1.0679
   66SOL     OW  329   1.882   3.582   2.268 -0.1051 -0.5364 -0.5220
   66SOL    HW1  330   1.970   3.613   2.248  0.6759 -1.9788  0.4916
   66SOL    HW2  331   1.893   3.521   2.341 -1.0479 -5.1153 -3.7413
   67SOL     OW  332   0.330   2.864   3.468  0.8425 -0.4557 -0.4035
   67SOL    HW1  333   0.410   2.888   3.420  1.3139 -1.2559 -0.0331
   67SOL    HW2  334   0.361   2.840   3.555  0.2556 -1.2639 -0.4074
   68SOL     OW  335   0.648   3.013   2.942  0.1218  0.8249  0.0044
   68SOL    HW1  336   0.667   2.927   2.905 -3.2783  1.2203 -3.1297
   68SOL    HW2  337   0.631   2.996   3.035  0.0566 -1.7540 -0.4187
   69SOL     OW  338   0.681   1.716   3.276 -0.3160 -0.0977  0.3658
   69SOL    HW1  339   0.732   1.796   3.287  2.1610 -1.4308 -0.5412
   69SOL    HW2  340   0.694   1.669   3.359  2.2889 -1.6043 -0.7805
   70SOL     OW  341   1.353   0.474   0.273  0.0338  0.5221 -0.4011
   70SOL    HW1  342   1.408   0.490   0.350 -0.1626  0.8735 -0.3311
   70SOL    HW2  343   1.274   0.433   0.309  0.7358 -1.0868 -0.6326
   71SOL     OW  344   0.148   1.800   1.314 -0.0999 -0.3981 -0.4534
   71SOL    HW1  345   0.205   1.875   1.305 -0.0314 -0.4353 -0.3283
   71SOL    HW2  346   0.069   1.834   1.355  0.0137 -0.4344 -0.2048
   72SOL     OW  347   0.371   3.112   2.355  0.4731  0.5778 -0.3791
   72SOL    HW1  348   0.362   3.046   2.424  2.0882 -0.6701 -1.2853
   72SOL    HW2  349   0.435   3.174   2.389 -0.0504  0.9534 -0.0647
   73SOL     OW  350   2.876   0.726   1.306 -0.2265 -0.4857  0.7182
   73SOL    HW1  351   2.812   0.793   1.328 -2.1630 -2.7838  2.7038
   73SOL    HW2  352   2.824   0.653   1.274  1.5588 -1.8875  0.8493
   74SOL     OW  353   3.492   0.479   1.105  0.4566  0.0016 -0.0637
   74SOL    HW1  354   3.465   0.403   1.157 -0.0811 -0.2938 -0.7634
   74SOL    HW2  355   3.519   0.544   1.170  1.0835 -0.8393  0.5425
   75SOL     OW  356   0.309   0.927   0.503 -0.2629 -0.3363 -0.4742
   75SOL    HW1  357   0.284   1.016   0.526 -0.2201 -0.5452  0.4038
   75SOL    HW2  358   0.321   0.882   0.587  4.6820  0.1370 -0.6750
   76SOL     OW  359   1.506   2.026   1.272 -0.4087  0.0740 -0.2556
   76SOL    HW1  360   1.451   2.091   1.315 -1.7049  0.5842 -2.5277
   76SOL    HW2  361   1.566   1.996   1.340 -0.8980  2.3963  1.2958
   77SOL     OW  362   0.441   1.942   1.823 -0.6019 -0.7726 -0.2934
   77SOL    HW1  363   0.418   1.942   1.916  0.1805 -1.3238 -0.0877
   77SOL    HW2  364   0.449   1.849   1.801  0.7638 -0.6305 -0.5008
   78SOL     OW  365   1.067   3.002   2.897  0.1148 -0.7432  0.4074
   78SOL    HW1  366   1.088   2.928   2.954  0.5981 -0.2839  0.8297
   78SOL    HW2  367   1.050   2.962   2.812  1.1356 -1.2839  0.4412
   79SOL     OW  368   1.168   2.746   3.573  0.0115 -0.4792 -0.1722
   79SOL    HW1  369   1.208   2.812   3.630  0.0388  0.5657 -1.3712
   79SOL    HW2  370   1.096   2.792   3.529 -2.4085 -2.1979  1.6494
   80SOL     OW  371   1.726   0.223   0.515 -0.3483  0.0968  0.3154
   80SOL    HW1  372   1.778   0.172   0.578 -0.3752 -0.0498  0.2203
   80SOL    HW2  373   1.685   0.157   0.459 -0.8550  0.2017  0.5562
   81SOL     OW  374   1.264   3.245   2.919  0.7846 -0.3792 -0.3241
   81SOL    HW1  375   1.219   3.229   3.001 -1.2315 -0.0145 -1.2826
   81SOL    HW2  376   1.253   3.164   2.869  0.2474  0.0919 -0.9798
   82SOL     OW  377   2.316   3.599   1.519 -0.4065  0.4116  0.0408
   82SOL    HW1  378   2.245   3.552   1.562  0.5397  0.0556  1.2627
   82SOL    HW2  379   2.380   3.616   1.588  0.5241  1.0840 -0.9400
   83SOL     OW  380   0.885   1.463   3.506 -0.0694  0.6690 -0.4343
   83SOL    HW1  381   0.892   1.399   3.576 -0.0522  1.1213 -0.0148
   83SOL    HW2  382   0.814   1.521   3.534 -1.4460 -0.3176 -1.7449
   84SOL     OW  383   2.481   3.042   3.607 -0.8790  0.2833  0.1851
   84SOL    HW1  384   2.460   3.123   3.655 -0.0275 -0.2187  1.4796
   84SOL    HW2  385   2.574   3.052   3.585  0.2151 -1.6565  3.2620
   85SOL     OW  386   0.902   3.453   3.349  0.5449 -0.0038 -0.6136
   85SOL    HW1  387   0.920   3.432   3.441 -0.4091  0.8331 -0.2168
   85SOL    HW2  388   0.870   3.371   3.312 -0.1263 -0.0795  0.0999
   86SOL     OW  389   3.737   3.592   1.025  0.4304 -0.2901  0.1306
   86SOL    HW1  390   3.717   3.575   1.117 -0.5134  0.2643  0.0450
   86SOL    HW2  391   3.748   3.687   1.021  4.0711 -0.5573  0.3265
   87SOL     OW  392   3.117   2.672   0.739  0.6631  0.3668 -0.2701
   87SOL    HW1  393   3.064   2.597   0.766  4.4447 -1.6392  2.5865
   87SOL    HW2  394   3.078   2.747   0.783 -2.6211  0.0857 -2.3818
   88SOL     OW  395   2.389   3.594   3.110  0.0931  0.3072 -0.0358
   88SOL    HW1  396   2.384   3.620   3.202  0.6492  1.5492 -0.3359
   88SOL    HW2  397   2.341   3.512   3.106  0.8046 -0.2291  1.5351
   89SOL     OW  398   0.268   0.030   2.376  0.1543 -0.6762 -0.1201
   89SOL    HW1  399   0.336   0.052   2.440 -0.4709  0.0706  0.3065
   89SOL    HW2  400   0.228  -0.050   2.410 -0.0707 -0.3699  0.3390
   90SOL     OW  401   0.768   1.501   0.855 -0.3241 -0.1319  0.3006
   90SOL    HW1  402   0.744   1.594   0.854 -0.2079 -0.1021 -0.7108
   90SOL    HW2  403   0.689   1.455   0.827 -0.4545 -0.3660  1.0322
   91SOL     OW  404   0.262   0.613   0.924  0.7709  0.8001 -0.3390
   91SOL    HW1  405   0.253   0.670   1.001 -0.7158  0.0728  0.0755
   91SOL    HW2  406   0.178   0.567   0.919  1.8381 -1.2117 -0.7840
   92SOL     OW  407   1.835   0.334   2.201  0.3099 -0.0992 -0.5446
   92SOL    HW1  408   1.907   0.307   2.258 -2.0834 -0.7016  2.4946
   92SOL    HW2  409   1.845   0.280   2.123  3.9935  1.0492 -1.0441
   93SOL     OW  410   1.861   3.395   3.721 -0.2425  0.4711 -0.3893
   93SOL    HW1  411   1.778   3.348   3.713  0.1676 -0.3900  0.3368
   93SOL    HW2  412   1.902   3.387   3.635  0.5942 -2.0122  0.1498
   94SOL     OW  413   0.393   0.427   1.734  0.2052 -0.0487 -0.3466
   94SOL    HW1  414   0.401   0.407   1.641  1.9896 -0.5252 -0.1251
   94SOL    HW2  415   0.354   0.348   1.772  3.1001 -1.5552 -0.1614
   95SOL     OW  416   2.918   1.235   0.018  0.1569  0.4224 -0.3036
   95SOL    HW1  417   2.904   1.158   0.073 -0.2927 -1.4303 -2.8050
   95SOL    HW2  418   3.010   1.230  -0.007 -0.0668  0.2472 -1.1013
   96SOL     OW  419   0.106   2.794   0.302 -0.4253 -0.9977 -0.0642
   96SOL    HW1  420   0.064   2.806   0.387  1.5252 -1.3207  1.0005
   96SOL    HW2  421   0.111   2.699   0.291 -1.6267 -0.9698 -1.0758
   97SOL     OW  422   2.918   1.759   2.071  0.3353 -0.3027 -0.2060
   97SOL    HW1  423   2.914   1.770   1.976  1.8644 -1.5081 -0.4478
   97SOL    HW2  424   2.894   1.667   2.085  0.7268 -0.3001  0.5316
   98SOL     OW  425   0.604   3.410   1.200 -0.3514  0.5360 -0.5046
   98SOL    HW1  426   0.584   3.339   1.139 -0.1924 -0.9939  1.1556
   98SOL    HW2  427   0.695   3.396   1.224 -0.9701 -0.1987  1.6524
   99SOL     OW  428   0.973   1.320   2.368 -0.0070  0.0994 -0.5117
   99SOL    HW1  429   1.069   1.315   2.376  0.0696  0.7857 -0.8441
   99SOL    HW2  430   0.952   1.260   2.296  0.1940  0.0393 -0.5212
  100SOL     OW  431   2.778   2.548   0.141  0.0874  0.3910 -0.1341
  100SOL    HW1  432   2.696   2.589   0.115  0.7165  1.3546 -0.6476
  100SOL    HW2  433   2.826   2.535   0.059  1.1334  1.3796  0.2833
  101SOL     OW  434   1.517   0.210   1.209  0.5057 -0.1243 -0.3613
  101SOL    HW1  435   1.468   0.224   1.128  0.5868 -1.9671 -0.7691
  101SOL    HW2  436   1.501   0.289   1.261 -1.5015  0.0645 -1.1837
  102SOL     OW  437   2.032   0.541   3.159  0.3153  0.1806  0.4046
  102SOL    HW1  438   1.947   0.580   3.137 -0.2400 -1.3204 -0.2802
  102SOL    HW2  439   2.009   0.467   3.217  1.3201  0.8433  1.6844
  103SOL     OW  440   1.249   2.815   1.144 -0.3943  0.4569  0.1435
  103SOL    HW1  441   1.242   2.803   1.050  0.1891  0.9094  0.0382
  103SOL    HW2  442   1.163   2.789   1.178 -0.9845  1.3238 -0.6229
  104SOL     OW  443   0.928   3.151   0.787  0.0197 -0.2688 -0.4883
  104SOL    HW1  444   0.926   3.246   0.797 -0.9411 -0.1705 -1.3807
  104SOL    HW2  445   1.021   3.130   0.781  0.3577  0.3491  1.6952
  105SOL     OW  446   1.362   0.135   2.669 -0.1759 -0.4318 -0.7107
  105SOL    HW1  447   1.304   0.063   2.694  0.2852 -0.0506  1.7540
  105SOL    HW2  448   1.426   0.096   2.609 -0.9827 -1.6322 -0.8087
  106SOL     OW  449   1.516   0.245   0.943 -0.1440  0.1681  0.4458
  106SOL    HW1  450   1.576   0.173   0.925  0.1808  0.6176 -0.3357
  106SOL    HW2  451   1.446   0.233   0.878  0.9514  1.7116 -1.1174
  107SOL     OW  452   2.740   2.106   1.777  0.1006  0.7131  0.2914
  107SOL    HW1  453   2.717   2.128   1.867  0.4921  1.2348  0.2676
  107SOL    HW2  454   2.694   2.171   1.724 -1.0167 -0.2457  0.0285
  108SOL     OW  455   1.925   0.354   2.544 -0.6496 -0.4993 -0.2746
  108SOL    HW1  456   2.002   0.298   2.555  1.7058  2.2904 -1.2834
  108SOL    HW2  457   1.924   0.409   2.622 -0.1910  1.0203 -1.2958
  109SOL     OW  458   1.871   2.363   1.657 -0.2055 -0.0966 -0.2126
  109SOL    HW1  459   1.814   2.341   1.731  0.0721  1.5429  0.5326
  109SOL    HW2  460   1.822   2.334   1.580 -0.1968 -2.4940  0.5986
  110SOL     OW  461   0.230   3.288   3.342 -0.0942 -0.2310  0.8235
  110SOL    HW1  462   0.304   3.330   3.298 -1.0192  0.1125 -0.4510
  110SOL    HW2  463   0.267   3.254   3.424  1.3808  0.2546  0.3874
  111SOL     OW  464   0.339   3.315   1.315  0.3522  0.4689 -0.3811
  111SOL    HW1  465   0.360   3.369   1.391  2.1240 -3.0108  1.8591
  111SOL    HW2  466   0.423   3.306   1.269  0.0823 -0.3270 -0.7212
  112SOL     OW  467   3.411   0.378   2.913  0.3011 -0.1625 -0.4001
  112SOL    HW1  468   3.362   0.409   2.989  1.1360 -2.5670  1.2425
  112SOL    HW2  469   3.347   0.334   2.858  0.1236 -0.9912  0.4349
  113SOL     OW  470   0.761   2.173   3.760  0.3973 -0.2940 -0.2357
  113SOL    HW1  471   0.703   2.161   3.685  0.0130 -0.9930  0.1652
  113SOL    HW2  472   0.822   2.242   3.732 -1.1283  1.0761 -0.3797
  114SOL     OW  473   3.662   2.497   3.090 -0.1010  0.3178 -0.5729
  114SOL    HW1  474   3.656   2.581   3.045  1.2906  1.2339  0.8346
  114SOL    HW2  475   3.686   2.435   3.022 -3.0749  0.6010 -2.0405
  115SOL     OW  476   3.700   0.761   1.614  0.0019 -0.3136 -0.7251
  115SOL    HW1  477   3.781   0.811   1.615  1.1961 -2.0698  1.1933
  115SOL    HW2  478   3.648   0.798   1.686 -1.3817  1.3966 -2.5078
  116SOL     OW  479   1.510   0.702   1.855  1.0891  0.1859  0.2064
  116SOL    HW1  480   1.527   0.747   1.938 -1.3261  0.1974  0.7754
  116SOL    HW2  481   1.512   0.609   1.878  0.6378  0.1837  0.2551
  117SOL     OW  482   2.065   0.203   2.268  0.0242  0.6085 -0.2099
  117SOL    HW1  483   2.121   0.168   2.337 -0.8809  1.2904  0.8913
  117SOL    HW2  484   2.104   0.169   2.187  1.7651  0.7116  0.5329
  118SOL     OW  485   0.216   3.473   3.657  0.3084  0.3855 -0.1783
  118SOL    HW1  486   0.162   3.479   3.735 -0.6308  0.4942 -0.8109
  118SOL    HW2  487   0.288   3.414   3.681 -0.5573 -0.4524  0.4359
  119SOL     OW  488   3.348   3.409   1.160 -0.1169  0.0228  0.3310
  119SOL    HW1  489   3.369   3.474   1.092  0.8232  0.0105  0.5903
  119SOL    HW2  490   3.283   3.453   1.215  1.2856  1.2278  1.1400
  120SOL     OW  491   3.083   2.666   0.179  0.0135  0.0559 -0.9581
  120SOL    HW1  492   3.080   2.587   0.232 -0.7673  0.1926 -0.7831
  120SOL    HW2  493   3.160   2.714   0.210  0.4579 -0.5990 -1.0257
  121SOL     OW  494   3.216   2.399   0.622  0.2830 -0.5082 -0.0848
  121SOL    HW1  495   3.137   2.452   0.624  0.9363  0.4730  0.5216
  121SOL    HW2  496   3.195   2.326   0.563 -1.0163 -0.1999 -0.0268
  122SOL     OW  497   3.344   3.128   2.177 -0.3332 -0.4302  0.0810
  122SOL    HW1  498   3.422   3.152   2.227 -0.7149  0.5063  0.2435
  122SOL    HW2  499   3.293   3.209   2.171 -1.6871 -1.2083  0.6786
  123SOL     OW  500   1.990   1.202   0.226  0.2835 -0.8361 -0.2479
  123SOL    HW1  501   1.959   1.275   0.281  1.3534 -1.6164  1.4777
  123SOL    HW2  502   2.058   1.241   0.171 -0.6684 -0.0848 -0.9390
  124SOL     OW  503   0.031   2.251   0.663  0.3957  0.3379  0.4035
  124SOL    HW1  504   0.004   2.175   0.611 -2.4085  2.0722 -0.9599
  124SOL    HW2  505   0.112   2.281   0.621  0.1132 -0.4005 -0.7258
  125SOL     OW  506   2.553   0.230   3.191  0.2936 -0.1017  0.0319
  125SOL    HW1  507   2.468   0.218   3.149 -1.5199  2.1911  2.7330
  125SOL    HW2  508   2.579   0.142   3.219  0.5886 -1.4007 -3.6425
  126SOL     OW  509   1.132   0.400   3.317 -0.1424 -0.2365  0.2274
  126SOL    HW1  510   1.136   0.486   3.275  0.2012 -1.1305 -1.7050
  126SOL    HW2  511   1.160   0.339   3.248 -1.0012 -1.9559  1.3395
  127SOL     OW  512   1.776   0.139   1.114 -0.0470  0.1369 -0.6458
  127SOL    HW1  513   1.699   0.169   1.163  0.9737  0.7005  0.7007
  127SOL    HW2  514   1.850   0.160   1.172  1.3457  1.8177 -2.8813
  128SOL     OW  515   1.448   3.054   1.578  0.1411  0.5021  0.2340
  128SOL    HW1  516   1.411   2.996   1.512  0.6420  1.3568 -0.8214
  128SOL    HW2  517   1.484   2.994   1.644  0.2105 -0.3932 -0.5859
  129SOL     OW  518   2.410   1.726   3.498  0.2717 -0.1797 -0.4706
  129SOL    HW1  519   2.443   1.761   3.580 -4.1725  1.6887  0.8307
  129SOL    HW2  520   2.384   1.636   3.520 -2.8920  0.9528  1.0606
  130SOL     OW  521   1.056   2.259   1.583  0.0291 -0.1202 -0.2109
  130SOL    HW1  522   0.972   2.285   1.544  0.8019 -0.3036 -2.0999
  130SOL    HW2  523   1.114   2.333   1.568 -0.1042  0.6161  2.3919
  131SOL     OW  524   3.132   1.554   3.236 -0.0018  0.1630  0.1689
  131SOL    HW1  525   3.134   1.649   3.233 -0.0263  0.1379 -1.6924
  131SOL    HW2  526   3.054   1.530   3.186 -1.0424 -0.8272  2.1290
  132SOL     OW  527   2.569   2.821   1.954  0.1211 -0.2306  0.2243
  132SOL    HW1  528   2.583   2.745   2.011  0.4208 -0.5109 -0.2134
  132SOL    HW2  529   2.474   2.825   1.942  0.0898 -0.4259  0.3925
  133SOL     OW  530   0.581   3.665   1.276 -0.1607  0.1199 -0.5959
  133SOL    HW1  531   0.645   3.641   1.343  0.6307 -0.8428 -1.6652
  133SOL    HW2  532   0.577   3.589   1.218 -0.7770  0.9556 -1.6794
  134SOL     OW  533   1.842   2.783   2.706 -0.5591  0.0907  0.9952
  134SOL    HW1  534   1.819   2.872   2.680 -0.1649  0.2659  1.2384
  134SOL    HW2  535   1.897   2.794   2.784 -1.3363 -0.4032  1.6311
  135SOL     OW  536   3.694   3.075   1.285  0.0820 -0.3702 -0.3496
  135SOL    HW1  537   3.637   3.008   1.248 -0.5110  0.8130 -1.6240
  135SOL    HW2  538   3.636   3.131   1.336  0.2701  0.2640 -0.8300
  136SOL     OW  539   3.301   3.220   0.969  0.0080  0.3939 -0.3707
  136SOL    HW1  540   3.344   3.287   1.020 -2.0595  0.7907  0.9788
  136SOL    HW2  541   3.264   3.267   0.894  0.0265  0.4630 -0.3366
  137SOL     OW  542   0.361   0.908   1.478 -0.1066  0.3646  0.1289
  137SOL    HW1  543   0.455   0.898   1.465  0.3267  1.2888  2.1548
  137SOL    HW2  544   0.325   0.820   1.466  1.0132  0.0062 -0.6443
  138SOL     OW  545   3.171   0.734   0.335  0.1937 -0.9348  0.7482
  138SOL    HW1  546   3.226   0.677   0.390 -0.7703 -2.8147 -0.1407
  138SOL    HW2  547   3.206   0.721   0.247  0.8329  0.9810  0.6695
  139SOL     OW  548   2.051   0.138   1.755 -0.3390 -0.1629  0.0922
  139SOL    HW1  549   2.063   0.174   1.667 -0.5916  1.9594  0.8518
  139SOL    HW2  550   2.139   0.110   1.782 -0.1898 -0.4562 -0.6669
  140SOL     OW  551   3.365   1.338   0.262  0.0153 -0.4867 -0.4956
  140SOL    HW1  552   3.428   1.278   0.303 -0.4545 -1.6915 -1.4911
  140SOL    HW2  553   3.356   1.305   0.173 -1.9757 -0.2908 -0.3966
  141SOL     OW  554   0.955   0.134   3.610  0.4286 -1.2952 -0.0490
  141SOL    HW1  555   0.926   0.220   3.641 -0.0992 -1.2450 -0.6605
  141SOL    HW2  556   0.992   0.151   3.523 -0.2502 -1.7655 -0.4448
  142SOL     OW  557   0.144   1.116   1.368 -0.0536 -0.2268 -0.3894
  142SOL    HW1  558   0.172   1.034   1.408 -2.5067 -0.2487  1.5359
  142SOL    HW2  559   0.131   1.175   1.442  0.7696  1.6404 -1.6696
  143SOL     OW  560   3.196   1.814   2.920  0.3643  0.0492  0.4939
  143SOL    HW1  561   3.281   1.856   2.910 -0.3062  1.3298 -0.2379
  143SOL    HW2  562   3.156   1.858   2.995  0.4042 -0.6486  0.9273
  144SOL     OW  563   0.146   0.425   3.631  0.5217 -0.4398 -0.6554
  144SOL    HW1  564   0.159   0.370   3.709  1.9142 -0.5655 -0.9395
  144SOL    HW2  565   0.197   0.504   3.650  1.1071 -0.5916 -1.5331
  145SOL     OW  566   0.824   2.687   3.216  0.2030  0.0530  0.0023
  145SOL    HW1  567   0.838   2.781   3.209  2.6156 -0.2029  0.5128
  145SOL    HW2  568   0.742   2.671   3.168 -1.6940  2.6955  2.0783
  146SOL     OW  569   1.884   2.646   1.756  0.0209 -0.5439 -0.2993
  146SOL    HW1  570   1.896   2.726   1.807  0.6771  0.0737 -1.3903
  146SOL    HW2  571   1.885   2.576   1.821 -0.6785  0.3242  0.6928
  147SOL     OW  572   2.964   2.226   1.635  0.2229  0.0691 -0.2445
  147SOL    HW1  573   2.928   2.313   1.620 -1.0658 -0.4297 -0.1793
  147SOL    HW2  574   2.909   2.189   1.704  1.4446 -0.4086  0.5178
  148SOL     OW  575   1.547   1.035   2.331  0.3465 -0.5759 -0.3734
  148SOL    HW1  576   1.641   1.015   2.329  0.2692 -1.4172  1.8738
  148SOL    HW2  577   1.525   1.036   2.424 -1.8539 -0.1861 -0.8518
  149SOL     OW  578   1.962   3.598   0.293 -0.6917 -0.3290  0.7659
  149SOL    HW1  579   1.914   3.679   0.276 -0.8053 -0.6198 -0.3781
  149SOL    HW2  580   1.921   3.561   0.371 -0.5266  0.7949  1.3987
  150SOL     OW  581   3.307   3.429   1.717  0.0848 -0.4416 -0.4687
  150SOL    HW1  582   3.254   3.354   1.743  0.3208 -0.0917  1.0932
  150SOL    HW2  583   3.249   3.482   1.663 -1.1795 -0.0912  1.1627
  151SOL     OW  584   2.479   1.471   1.787  0.2631 -0.0688 -0.2235
  151SOL    HW1  585   2.393   1.495   1.752 -0.3659  0.0215  1.2925
  151SOL    HW2  586   2.471   1.379   1.810  1.4160 -0.7760 -2.3734
  152SOL     OW  587   2.373   1.421   0.713  0.3103 -0.2324  0.3732
  152SOL    HW1  588   2.447   1.466   0.674  2.6413 -3.6437  0.4291
  152SOL    HW2  589   2.377   1.444   0.806  0.9286  0.0690  0.2768
  153SOL     OW  590   1.287   1.937   1.896 -0.3298 -0.3601  0.3100
  153SOL    HW1  591   1.354   1.921   1.830 -0.9864  0.1816 -0.5182
  153SOL    HW2  592   1.284   1.857   1.948 -0.9958 -1.5319 -1.4261
  154SOL     OW  593   1.147   2.070   1.166 -0.0003  0.3100  0.0661
  154SOL    HW1  594   1.096   2.143   1.201 -0.0072  0.5312 -0.4017
  154SOL    HW2  595   1.193   2.035   1.242  0.3602  1.0896  0.2188
  155SOL     OW  596   2.166   0.162   2.000  0.6069 -0.6846 -0.6568
  155SOL    HW1  597   2.183   0.254   1.982  0.2094 -0.9543 -2.7274
  155SOL    HW2  598   2.080   0.146   1.962  0.9456 -2.0369 -0.9161
  156SOL     OW  599   1.397   2.343   2.445  0.1614  0.2748  0.5323
  156SOL    HW1  600   1.305   2.316   2.448  0.1133  0.2787 -0.3834
  156SOL    HW2  601   1.397   2.433   2.475 -0.4707  1.0007 -1.4390
  157SOL     OW  602   2.451   1.835   0.008  0.4861  0.1320  0.2266
  157SOL    HW1  603   2.436   1.855   0.100 -1.3183 -1.4965  0.3575
  157SOL    HW2  604   2.470   1.919  -0.033 -1.3964  1.2962  1.6175
  158SOL     OW  605   3.020   1.116   1.938  0.6447  0.1421 -0.5482
  158SOL    HW1  606   3.092   1.174   1.963  0.7930 -0.7528  1.2706
  158SOL    HW2  607   3.058   1.028   1.942 -0.0702 -0.2233 -1.4294
  159SOL     OW  608   2.815   2.325   3.496  0.2460  0.4771 -1.1645
  159SOL    HW1  609   2.724   2.351   3.480 -0.4847 -0.9013  0.4632
  159SOL    HW2  610   2.822   2.238   3.458 -0.3796 -1.1563  2.0849
  160SOL     OW  611   3.509   1.290   3.446 -0.0393 -0.2035  0.4452
  160SOL    HW1  612   3.508   1.218   3.508 -2.7799 -1.5939 -1.0626
  160SOL    HW2  613   3.572   1.263   3.379 -2.1853 -2.1087 -0.9500
  161SOL     OW  614   0.784   3.245   3.178  0.2251 -0.7566  0.0083
  161SOL    HW1  615   0.824   3.214   3.097 -0.5688  0.2668 -0.8159
  161SOL    HW2  616   0.698   3.277   3.151 -0.1628 -0.6421  1.3080
  162SOL     OW  617   0.076   2.028   1.100 -0.0379 -0.1133  0.1894
  162SOL    HW1  618   0.094   1.982   1.018 -0.5007 -2.1937  1.1898
  162SOL    HW2  619   0.095   2.119   1.080  2.8027 -0.8960 -1.3988
  163SOL     OW  620   1.329   1.720   0.931  0.1000 -0.2423  0.4760
  163SOL    HW1  621   1.236   1.735   0.946 -0.9867 -3.1468 -2.4012
  163SOL    HW2  622   1.348   1.762   0.848  0.7325 -1.6137 -0.1104
  164SOL     OW  623   2.891   1.244   2.839 -0.2393 -0.4843  0.0996
  164SOL    HW1  624   2.845   1.297   2.774  0.0067  0.3144  0.5740
  164SOL    HW2  625   2.823   1.186   2.875 -0.3897 -0.8963 -0.8125
  165SOL     OW  626   1.744   0.337   0.263 -0.6282 -0.1870 -0.5686
  165SOL    HW1  627   1.716   0.429   0.266 -2.1129 -0.6167 -0.9335
  165SOL    HW2  628   1.752   0.312   0.355  1.4609  0.7549 -0.4163
  166SOL     OW  629   1.599   3.245   2.138  0.2323  0.1809  0.0945
  166SOL    HW1  630   1.506   3.268   2.140  0.5915  1.8218 -0.5005
  166SOL    HW2  631   1.623   3.237   2.231 -0.7641 -1.6113  0.2496
  167SOL     OW  632   1.812   2.265   3.330 -0.6345 -0.1599  0.2833
  167SOL    HW1  633   1.739   2.208   3.354  0.4397 -1.2832  0.9891
  167SOL    HW2  634   1.890   2.210   3.340  0.2261  0.5793 -1.7528
  168SOL     OW  635   0.648   2.483   0.135  0.2629  0.2697  0.5950
  168SOL    HW1  636   0.737   2.451   0.127 -0.0222 -0.4592  0.2563
  168SOL    HW2  637   0.604   2.451   0.056 -0.4672  0.0502  1.0830
  169SOL     OW  638   0.466   2.811   1.827  0.1181  0.0016  0.2833
  169SOL    HW1  639   0.422   2.753   1.889 -0.6775  2.5465  2.2706
  169SOL    HW2  640   0.400   2.831   1.761  0.2783 -0.9345 -0.1925
  170SOL     OW  641   1.280   1.015   2.227  0.0156 -0.3771 -0.1826
  170SOL    HW1  642   1.357   1.001   2.282 -0.6335  3.1505  1.9017
  170SOL    HW2  643   1.316   1.023   2.138  1.5201 -2.4576  0.1573
  171SOL     OW  644   1.830   1.739   3.439  0.1918 -0.2969  0.9812
  171SOL    HW1  645   1.917   1.699   3.444  0.2496 -0.0997  1.7285
  171SOL    HW2  646   1.838   1.819   3.490 -0.1240  0.3056  0.1062
  172SOL     OW  647   2.479   0.331   2.170  0.0381 -0.3618  0.1089
  172SOL    HW1  648   2.512   0.280   2.244 -1.4113 -2.8577 -0.8538
  172SOL    HW2  649   2.486   0.272   2.095 -4.2472 -0.2935 -0.5712
  173SOL     OW  650   0.995   1.393   1.214  0.6724  0.6575  0.2496
  173SOL    HW1  651   0.951   1.324   1.164  2.6455 -1.6836  1.5443
  173SOL    HW2  652   1.049   1.440   1.150 -0.1077  0.5433 -0.5086
  174SOL     OW  653   0.939   0.348   0.387 -0.3907  0.9298 -0.7327
  174SOL    HW1  654   0.867   0.398   0.425 -2.1720 -0.4553 -2.0576
  174SOL    HW2  655   0.966   0.400   0.311 -0.6447  0.9979 -0.7773
  175SOL     OW  656   0.074   3.356   2.036  0.1820  0.6670 -0.5323
  175SOL    HW1  657   0.009   3.287   2.051  1.3851 -0.5144 -0.5046
  175SOL    HW2  658   0.035   3.434   2.075 -0.8018 -0.2215  0.3510
  176SOL     OW  659   1.850   0.709   1.774 -0.3193 -0.3329 -0.2680
  176SOL    HW1  660   1.783   0.653   1.814  1.0341 -1.3778  0.6123
  176SOL    HW2  661   1.879   0.766   1.844 -0.0511 -0.1070 -0.5604
  177SOL     OW  662   2.887   3.309   3.621 -0.2582 -0.2887  0.1003
  177SOL    HW1  663   2.929   3.231   3.655 -1.8094 -0.4363  1.8185
  177SOL    HW2  664   2.802   3.279   3.590 -1.2477  0.7952  1.5993
  178SOL     OW  665   2.726   3.111   3.490  0.0550 -1.0827  0.6058
  178SOL    HW1  666   2.688   3.108   3.403  0.5245  0.7649  0.3107
  178SOL    HW2  667   2.794   3.043   3.489 -0.8669 -2.0278  0.0197
  179SOL     OW  668   3.380   3.592   0.950  0.5465 -0.0499 -0.2060
  179SOL    HW1  669   3.379   3.682   0.983  2.7854 -0.2724  0.6271
  179SOL    HW2  670   3.463   3.585   0.902 -0.0289 -1.4074 -1.0584
  180SOL     OW  671   1.636   3.738   0.421  0.6881  0.8116 -0.1633
  180SOL    HW1  672   1.632   3.709   0.330 -0.0763 -0.1754  0.1629
  180SOL    HW2  673   1.658   3.658   0.470  1.7815  1.4700  0.4636
  181SOL     OW  674   0.474   1.103   3.251  0.4314 -0.1383 -0.3284
  181SOL    HW1  675   0.486   1.031   3.188  1.5105  0.8334 -1.3015
  181SOL    HW2  676   0.424   1.169   3.202  0.6113  0.3175  0.0986
  182SOL     OW  677   3.090   1.372   2.049 -0.8507 -0.1947  0.1828
  182SOL    HW1  678   3.055   1.422   1.976 -2.1794 -0.2806  0.7304
  182SOL    HW2  679   3.030   1.390   2.121  0.9424  0.6282  1.5516
  183SOL     OW  680   1.439   0.712   3.392  0.5268  0.6639  0.0904
  183SOL    HW1  681   1.369   0.776   3.378 -0.3049 -0.4041 -0.8466
  183SOL    HW2  682   1.456   0.676   3.305  0.2543 -1.1036  0.7251
  184SOL     OW  683   1.073   3.233   2.281  0.3175  0.0463 -0.3034
  184SOL    HW1  684   1.125   3.196   2.352  0.0617 -4.4202 -2.0675
  184SOL    HW2  685   0.984   3.236   2.316  0.5049 -0.1773  0.1974
  185SOL     OW  686   2.143   1.512   3.223 -0.3745  0.2120  0.0905
  185SOL    HW1  687   2.089   1.555   3.156  0.4063  0.4732 -0.3906
  185SOL    HW2  688   2.085   1.447   3.262 -2.0772  2.5858  1.8221
  186SOL     OW  689   2.693   2.165   0.577  0.4266 -0.4022  0.2039
  186SOL    HW1  690   2.681   2.072   0.560 -1.4070 -0.1963  0.1505
  186SOL    HW2  691   2.658   2.178   0.665  1.5241  0.1005  0.5911
  187SOL     OW  692   0.551   3.543   1.800  0.7373 -0.4038  0.2480
  187SOL    HW1  693   0.640   3.564   1.827  0.9719 -0.1108 -0.7142
  187SOL    HW2  694   0.530   3.462   1.846  1.8671 -1.0141 -0.2931
  188SOL     OW  695   0.893   2.930   1.093 -0.5678  0.1453  0.0993
  188SOL    HW1  696   0.955   3.000   1.071 -0.0196 -0.4929 -0.4307
  188SOL    HW2  697   0.902   2.920   1.187  0.7738 -0.5089 -0.0736
  189SOL     OW  698   1.615   3.097   1.302  0.2321 -0.1538  0.4269
  189SOL    HW1  699   1.642   3.005   1.298 -0.2696 -0.3420  1.1494
  189SOL    HW2  700   1.535   3.096   1.355 -0.1362  0.6212 -0.1003
  190SOL     OW  701   0.327   3.008   0.898 -0.3987 -0.4332  1.2024
  190SOL    HW1  702   0.403   2.967   0.939  0.6242 -0.0719 -0.2414
  190SOL    HW2  703   0.251   2.965   0.938  0.5749 -1.3192  2.1460
  191SOL     OW  704   2.825   3.345   3.212 -0.3574 -0.6330  0.7033
  191SOL    HW1  705   2.771   3.354   3.290 -2.3509 -0.0943 -0.6687
  191SOL    HW2  706   2.879   3.424   3.212 -2.0852  0.5907  0.2946
  192SOL     OW  707   0.881   1.182   1.396 -0.3896  0.3132 -0.0467
  192SOL    HW1  708   0.847   1.249   1.337 -1.6778  0.1358  0.4761
  192SOL    HW2  709   0.951   1.140   1.346 -0.9379  0.6789 -1.1576
  193SOL     OW  710   0.435   0.728   2.472  0.4479 -0.0409 -0.3224
  193SOL    HW1  711   0.501   0.730   2.541  1.5744  1.7172 -1.3621
  193SOL    HW2  712   0.412   0.636   2.462  1.9265 -0.5693  0.8414
  194SOL     OW  713   1.448   1.125   1.722 -0.2932 -0.3208 -0.2797
  194SOL    HW1  714   1.514   1.177   1.675  0.1376 -1.2756 -0.7574
  194SOL    HW2  715   1.436   1.170   1.805 -1.1431  1.4890 -1.3104
  195SOL     OW  716   2.093   1.359   3.578  0.7076 -0.4760  0.1480
  195SOL    HW1  717   2.138   1.327   3.656  0.8269  2.4107  1.3926
  195SOL    HW2  718   2.001   1.335   3.591  0.3775  1.6157  2.2178
  196SOL     OW  719   1.010   2.013   2.089 -0.0614 -0.4354 -0.2654
  196SOL    HW1  720   1.071   1.980   2.023  1.0010 -1.0258  0.9682
  196SOL    HW2  721   1.052   2.091   2.125  0.0456 -0.9085  0.6710
  197SOL     OW  722   1.705   2.035   3.711 -0.3408 -0.6555 -0.7306
  197SOL    HW1  723   1.730   2.089   3.786 -2.8239  1.2981 -1.1670
  197SOL    HW2  724   1.768   2.059   3.642  0.5086 -0.7076  0.0134
  198SOL     OW  725   3.479   2.287   1.581 -0.4023 -0.0145  1.2214
  198SOL    HW1  726   3.562   2.299   1.628  1.1057  1.3983 -1.5013
  198SOL    HW2  727   3.416   2.341   1.628  0.6143  0.0957  2.5031
  199SOL     OW  728   2.770   3.028   1.891  0.4503 -0.2545 -0.2605
  199SOL    HW1  729   2.758   3.051   1.799 -0.2250  1.5126  0.2081
  199SOL    HW2  730   2.702   2.963   1.909 -0.0805  0.1485 -0.7701
  200SOL     OW  731   3.702   3.681   2.811  0.6551 -0.1773  0.4683
  200SOL    HW1  732   3.726   3.602   2.861 -0.4016  0.1496  1.5150
  200SOL    HW2  733   3.774   3.742   2.827  1.2383 -0.7333  0.0511
  201SOL     OW  734   0.851   0.977   0.798  0.0847  0.1435  0.3448
  201SOL    HW1  735   0.774   0.973   0.855 -0.9208 -0.3508 -0.9905
  201SOL    HW2  736   0.821   1.027   0.722  0.6737 -1.1855 -0.7936
  202SOL     OW  737   1.460   1.967   1.016  0.2661  0.3010  0.1022
  202SOL    HW1  738   1.415   1.883   1.012  4.1637 -2.0032 -0.5009
  202SOL    HW2  739   1.481   1.979   1.108 -1.2795  1.3031  0.3620
  203SOL     OW  740   2.687   1.271   2.201 -0.0555 -0.1174  0.2743
  203SOL    HW1  741   2.774   1.231   2.207  0.5918  1.3786  1.6406
  203SOL    HW2  742   2.667   1.297   2.291 -2.3371 -1.2035  0.1590
  204SOL     OW  743   0.597   2.660   3.058  0.0695 -0.0945 -0.0682
  204SOL    HW1  744   0.504   2.656   3.037  0.0479 -0.9223  0.1564
  204SOL    HW2  745   0.636   2.587   3.009  0.3899 -0.5573  0.8498
  205SOL     OW  746   3.020   1.769   1.281  0.4298 -0.0431  0.3875
  205SOL    HW1  747   3.091   1.707   1.268  0.3237 -0.1311  0.2295
  205SOL    HW2  748   2.977   1.740   1.362  2.4986  1.8430  2.2926
  206SOL     OW  749   2.524   1.007   2.406  0.2508  0.3663  0.4518
  206SOL    HW1  750   2.446   1.059   2.424 -0.5958 -0.8128  0.3264
  206SOL    HW2  751   2.527   1.001   2.310  1.6261  2.0323  0.3516
  207SOL     OW  752   1.758   1.758   0.099  0.0388  0.0918 -0.0772
  207SOL    HW1  753   1.787   1.773   0.189  0.1267 -1.0511  0.0989
  207SOL    HW2  754   1.727   1.843   0.069  1.4610  0.8298  0.4963
  208SOL     OW  755   0.729   0.902   1.208 -0.5583 -0.2590 -0.0933
  208SOL    HW1  756   0.821   0.898   1.236 -0.0581 -0.3773 -1.6777
  208SOL    HW2  757   0.680   0.911   1.290  0.9070  0.5597  0.7362
  209SOL     OW  758   2.163   2.277   3.471 -0.0516  0.3277 -0.1131
  209SOL    HW1  759   2.114   2.302   3.394 -1.9176 -1.4140  0.4235
  209SOL    HW2  760   2.216   2.202   3.443  0.7836  0.9187 -0.1660
  210SOL     OW  761   3.486   0.738   2.836 -0.1370 -0.5200 -0.2019
  210SOL    HW1  762   3.481   0.659   2.783  0.5932 -1.0116  0.4511
  210SOL    HW2  763   3.487   0.809   2.772 -0.9058 -1.0221 -0.7893
  211SOL     OW  764   0.725   0.971   0.305 -0.7280  0.1879 -0.1337
  211SOL    HW1  765   0.694   0.922   0.381  0.1880 -0.9678 -0.4644
  211SOL    HW2  766   0.646   0.994   0.257 -1.3143  0.8990  1.1307
  212SOL     OW  767   2.511   0.783   1.280  0.3298  0.3152 -0.7574
  212SOL    HW1  768   2.565   0.715   1.320 -0.0449  0.3737 -0.1503
  212SOL    HW2  769   2.546   0.791   1.191  1.9193  0.9801 -0.1216
  213SOL     OW  770  -0.006   0.117   1.051  0.6252 -0.5747  0.0506
  213SOL    HW1  771  -0.044   0.139   1.135  0.6094  1.0746 -0.3602
  213SOL    HW2  772   0.053   0.190   1.031 -0.4784 -0.1634 -2.0251
  214SOL     OW  773   2.450   1.225   1.911 -0.2410 -0.0267 -0.2260
  214SOL    HW1  774   2.533   1.184   1.932  0.0654  0.2546 -0.8421
  214SOL    HW2  775   2.410   1.167   1.846 -0.1866  0.2120 -0.4777
  215SOL     OW  776   3.045   3.019   0.210 -0.1071 -0.3458 -0.5997
  215SOL    HW1  777   3.098   2.940   0.213  1.7669  0.8495 -0.3850
  215SOL    HW2  778   3.085   3.073   0.141 -1.0301  0.6180 -0.4185
  216SOL     OW  779   1.958   2.588   3.702  0.1944 -0.6263  0.0409
  216SOL    HW1  780   1.892   2.555   3.763 -0.7110  0.2059 -0.4673
  216SOL    HW2  781   1.941   2.682   3.695  2.7554  0.0418  1.4872
  217SOL     OW  782   0.426   1.319   0.545  0.0713  0.2829 -0.1847
  217SOL    HW1  783   0.444   1.293   0.454 -1.4457  0.4354 -0.5512
  217SOL    HW2  784   0.461   1.408   0.552  1.4708 -0.2457 -0.1802
  218SOL     OW  785   3.189   2.127   3.107  0.2885 -0.2697 -0.3779
  218SOL    HW1  786   3.247   2.057   3.136  0.5069  1.1844  3.2271
  218SOL    HW2  787   3.107   2.111   3.153 -1.2080 -0.5446 -2.9732
  219SOL     OW  788   2.356   2.086   3.420 -0.2415 -0.4441  0.6112
  219SOL    HW1  789   2.425   2.106   3.357 -0.1501 -0.2643  0.7658
  219SOL    HW2  790   2.400   2.037   3.489 -0.2854 -0.4047  0.6676
  220SOL     OW  791   0.723   2.876   2.077  0.5322  0.1135  0.0717
  220SOL    HW1  792   0.668   2.798   2.074 -0.8104  0.9832  0.6435
  220SOL    HW2  793   0.797   2.852   2.132  0.5621 -0.9831 -0.4159
  221SOL     OW  794   1.879   1.239   1.665 -0.3831 -0.9809  0.2434
  221SOL    HW1  795   1.970   1.223   1.639 -0.2379 -1.3738  0.9574
  221SOL    HW2  796   1.851   1.156   1.704 -0.4570 -0.3277  1.6562
  222SOL     OW  797   3.696   3.139   1.800 -0.0788 -0.1157  0.1660
  222SOL    HW1  798   3.711   3.131   1.894 -0.0432 -2.7694  0.0064
  222SOL    HW2  799   3.660   3.227   1.789  1.2616  0.8139  2.4531
  223SOL     OW  800   2.117   3.312   1.439  0.0218  0.1699 -0.1427
  223SOL    HW1  801   2.049   3.247   1.420 -1.5343  1.5883  0.3902
  223SOL    HW2  802   2.088   3.391   1.394  0.6005  1.1970  1.2343
  224SOL     OW  803   2.214   3.231   3.476 -0.2694  0.1568  0.5530
  224SOL    HW1  804   2.123   3.251   3.497  0.6677  4.4654  1.5451
  224SOL    HW2  805   2.209   3.164   3.408 -4.1792  0.4606  0.3127
  225SOL     OW  806   2.667   0.563   1.392  0.2417  0.5242  0.4987
  225SOL    HW1  807   2.697   0.540   1.480  1.2155  1.0913  0.3248
  225SOL    HW2  808   2.576   0.535   1.390 -0.5982  2.8160  2.5656
  226SOL     OW  809   3.061   2.281   2.199  0.2049  0.7862  0.3828
  226SOL    HW1  810   3.085   2.367   2.233  1.2178  0.8389 -0.4164
  226SOL    HW2  811   3.076   2.221   2.273  2.9905  0.8033 -0.0427
  227SOL     OW  812   0.487   0.762   1.802 -0.1875 -0.5312 -0.0765
  227SOL    HW1  813   0.568   0.813   1.798  0.5743 -1.6698  0.4595
  227SOL    HW2  814   0.515   0.671   1.790 -1.5532 -0.8271 -1.3603
  228SOL     OW  815   3.681   2.838   1.080 -0.1218  0.4159 -0.3506
  228SOL    HW1  816   3.605   2.783   1.094  1.0833 -1.4480 -0.7717
  228SOL    HW2  817   3.650   2.907   1.021 -1.3170 -0.7284 -1.1255
  229SOL     OW  818   0.681   3.691   2.516  0.3247  0.1237  0.4388
  229SOL    HW1  819   0.701   3.650   2.600  0.9874 -0.7771 -0.1465
  229SOL    HW2  820   0.744   3.653   2.454 -1.9702 -1.4474 -1.1018
  230SOL     OW  821   2.224   3.001   1.945  0.1660 -0.3260  0.1827
  230SOL    HW1  822   2.264   3.005   2.032 -1.5251 -3.7461  1.3253
  230SOL    HW2  823   2.160   3.072   1.944  3.5724  3.0716 -0.4183
  231SOL     OW  824   1.319   3.577   1.054  0.3043 -0.4572  0.4629
  231SOL    HW1  825   1.393   3.562   1.113 -0.1432  3.4670  2.3551
  231SOL    HW2  826   1.354   3.635   0.987  0.2661 -3.2358 -2.1696
  232SOL     OW  827   1.110   0.401   2.612  0.8398  0.1317 -0.3414
  232SOL    HW1  828   1.185   0.443   2.570  0.4752  0.6036 -0.5199
  232SOL    HW2  829   1.043   0.469   2.617  1.5592  0.8131  2.9696
  233SOL     OW  830   2.466   0.084   1.988  0.0668  0.4472 -0.0179
  233SOL    HW1  831   2.493   0.067   2.078 -1.9165 -0.4105  0.4660
  233SOL    HW2  832   2.395   0.148   1.995  0.7750  1.4079 -1.1062
  234SOL     OW  833   3.466   1.544   1.010  0.4963 -0.2602  0.2413
  234SOL    HW1  834   3.466   1.449   1.005 -3.2507 -0.3835 -0.4724
  234SOL    HW2  835   3.493   1.563   1.100 -1.8216 -2.2803  1.4907
  235SOL     OW  836   1.258   3.621   2.757  0.3826 -0.0762 -0.1125
  235SOL    HW1  837   1.255   3.554   2.689  1.5104  0.4835 -0.7424
  235SOL    HW2  838   1.225   3.578   2.835 -1.9816 -0.4614 -1.2150
  236SOL     OW  839   0.457   3.054   2.750  0.8837 -0.6184 -0.4786
  236SOL    HW1  840   0.526   3.056   2.817  0.6427  0.5994 -0.2445
  236SOL    HW2  841   0.459   3.142   2.712  0.5708 -1.0937 -1.6246
  237SOL     OW  842   0.403   0.055   1.058  0.8107  0.0117  0.0772
  237SOL    HW1  843   0.485   0.087   1.095 -0.0949  2.7931 -0.0981
  237SOL    HW2  844   0.415   0.063   0.964 -0.0126  1.5464  0.0744
  238SOL     OW  845   3.748   1.732   2.945 -0.2390 -0.0611 -0.2255
  238SOL    HW1  846   3.730   1.681   2.867 -1.9934 -0.3420  0.3119
  238SOL    HW2  847   3.668   1.782   2.960  0.7217  1.3457  0.3835
  239SOL     OW  848   2.333   0.898   2.572  0.3018 -0.3177  0.1058
  239SOL    HW1  849   2.353   0.833   2.639  0.9277 -1.1538 -0.8664
  239SOL    HW2  850   2.413   0.906   2.521 -1.1710 -2.5116 -2.8416
  240SOL     OW  851   2.744   2.982   1.630  0.1627  0.1301 -0.1031
  240SOL    HW1  852   2.792   2.900   1.618 -0.3503 -0.1328 -0.3964
  240SOL    HW2  853   2.658   2.966   1.590  0.4748  1.2252 -1.2758
  241SOL     OW  854   0.500   1.796   0.509 -0.5982 -0.3856 -0.1877
  241SOL    HW1  855   0.551   1.875   0.528  1.2527 -0.6155 -3.4269
  241SOL    HW2  856   0.562   1.724   0.520 -1.6651 -1.2225  0.5917
  242SOL     OW  857   1.145   1.116   1.128  0.0926 -0.5936 -0.3978
  242SOL    HW1  858   1.138   1.026   1.158  1.6056 -0.4142  0.6167
  242SOL    HW2  859   1.063   1.133   1.082  0.6391 -3.1564 -2.5282
  243SOL     OW  860   0.525   3.303   3.035 -0.2178 -0.4749  0.0130
  243SOL    HW1  861   0.477   3.378   3.073 -0.3755 -0.1741 -0.7662
  243SOL    HW2  862   0.507   3.231   3.096  1.5819  0.5673  1.9069
  244SOL     OW  863   0.439   3.725   2.852  0.5568 -0.3352 -0.0610
  244SOL    HW1  864   0.391   3.696   2.775  1.5324  0.8667 -1.1881
  244SOL    HW2  865   0.398   3.681   2.926 -0.2191 -1.7444 -1.3067
  245SOL     OW  866   1.646   2.759   2.216 -0.6627  0.0792  0.3644
  245SOL    HW1  867   1.617   2.699   2.148 -0.2845  1.6770 -1.2623
  245SOL    HW2  868   1.619   2.845   2.186  3.2309  1.3847  0.0524
  246SOL     OW  869   3.248   0.055   3.296  0.2965  0.1078 -0.1584
  246SOL    HW1  870   3.287  -0.027   3.267 -2.6892 -1.1752 -0.8145
  246SOL    HW2  871   3.212   0.094   3.217 -0.2325  0.9548  0.4766
  247SOL     OW  872   0.593   1.568   3.092 -0.2239 -0.3985  0.1114
  247SOL    HW1  873   0.579   1.493   3.150  1.5665  0.9007  2.4072
  247SOL    HW2  874   0.624   1.638   3.150  0.9449  1.2580 -2.3312
  248SOL     OW  875   1.745   3.446   1.367  0.1305 -0.0207  0.2951
  248SOL    HW1  876   1.750   3.537   1.397  0.6221  0.0062  0.1475
  248SOL    HW2  877   1.709   3.398   1.442 -1.1818  0.4624 -0.0124
  249SOL     OW  878   1.352   1.598   3.580 -0.0914  0.4910  0.2205
  249SOL    HW1  879   1.426   1.601   3.519  0.4562 -2.6089  0.5865
  249SOL    HW2  880   1.276   1.578   3.526  0.4246 -2.4531  0.4316
  250SOL     OW  881   2.334   1.117   0.714 -0.0361 -0.3997  0.7820
  250SOL    HW1  882   2.386   1.195   0.696  3.0639 -2.3940  0.3179
  250SOL    HW2  883   2.248   1.136   0.677  1.2423  1.9528 -1.2357
  251SOL     OW  884   0.123   0.859   0.194  0.3472 -0.6781  0.3451
  251SOL    HW1  885   0.146   0.842   0.103  0.3673 -0.6595  0.3467
  251SOL    HW2  886   0.169   0.793   0.244  3.3191  1.4521  0.6885
  252SOL     OW  887   2.671   3.014   3.217 -0.4896  0.0438  0.1692
  252SOL    HW1  888   2.753   3.010   3.168  1.0918 -0.8087  2.6821
  252SOL    HW2  889   2.620   3.081   3.172  1.1622 -0.0503 -2.0516
  253SOL     OW  890   2.696   1.089   1.875 -0.0613  0.2216 -0.1344
  253SOL    HW1  891   2.775   1.139   1.893  0.3289 -0.2921 -0.3811
  253SOL    HW2  892   2.728   1.001   1.853 -0.7851 -0.5828  1.7946
  254SOL     OW  893   0.463   3.378   2.772 -0.0986  0.5804  0.0084
  254SOL    HW1  894   0.490   3.348   2.859  1.2561 -1.5132 -1.0458
  254SOL    HW2  895   0.524   3.447   2.749  0.2141  0.3963  0.2897
  255SOL     OW  896   2.746   0.156   2.845  0.7205 -0.5755 -0.0072
  255SOL    HW1  897   2.695   0.235   2.830 -0.6601 -1.4855 -0.2573
  255SOL    HW2  898   2.830   0.188   2.879  0.3116  0.9970 -0.3953
  256SOL     OW  899   1.330   0.890   1.272 -0.2036  0.4055  0.3606
  256SOL    HW1  900   1.386   0.946   1.326 -0.6931  0.5200  0.7531
  256SOL    HW2  901   1.392   0.842   1.216  0.2701  0.7255  0.5982
  257SOL     OW  902   3.771   1.701   0.617 -0.6129 -0.0289  0.6365
  257SOL    HW1  903   3.711   1.718   0.689 -0.9811  0.4785  0.2107
  257SOL    HW2  904   3.716   1.697   0.539 -0.3078 -1.2277  0.4479
  258SOL     OW  905   3.196   0.327   0.961 -0.8593 -0.5136  0.4072
  258SOL    HW1  906   3.250   0.398   0.926  0.3571 -0.9236  1.3738
  258SOL    HW2  907   3.109   0.344   0.926 -0.4089  0.9521 -0.0905
  259SOL     OW  908   0.204   3.136   1.159  0.5510  0.0529 -0.0275
  259SOL    HW1  909   0.243   3.191   1.227  2.7405 -3.0269  1.5062
  259SOL    HW2  910   0.117   3.114   1.194  0.4874  0.8279  0.3287
  260SOL     OW  911   2.636   2.674   3.179  0.6168 -0.5670  0.3678
  260SOL    HW1  912   2.627   2.688   3.084  0.9763 -0.5456  0.3378
  260SOL    HW2  913   2.645   2.762   3.215 -1.4912 -0.3950  0.6413
  261SOL     OW  914   2.639   0.473   3.190  0.3195 -1.1440  0.3905
  261SOL    HW1  915   2.619   0.383   3.164 -1.0694 -1.8749  3.5436
  261SOL    HW2  916   2.591   0.527   3.128  0.6879 -2.5530 -1.1977
  262SOL     OW  917   1.143   3.612   1.706  0.6101 -0.7162  0.4130
  262SOL    HW1  918   1.233   3.580   1.696  1.2252 -0.1444  3.3815
  262SOL    HW2  919   1.090   3.532   1.709  1.3848 -1.2186  1.4361
  263SOL     OW  920   2.391   2.009   2.533 -0.2153  0.4617 -0.0245
  263SOL    HW1  921   2.341   1.945   2.482 -1.6988  0.0523  1.8271
  263SOL    HW2  922   2.464   1.959   2.568 -1.8097 -0.5688  2.0911
  264SOL     OW  923   2.927   1.061   2.568 -0.5723 -0.0401  0.7514
  264SOL    HW1  924   2.912   1.154   2.585  0.5870  0.6425 -1.5733
  264SOL    HW2  925   2.900   1.048   2.477  1.1545 -1.4725  0.3726
  265SOL     OW  926   3.610   3.443   1.264  0.7836  1.1723  0.4714
  265SOL    HW1  927   3.515   3.445   1.276  0.3896 -0.7625 -1.6004
  265SOL    HW2  928   3.644   3.409   1.348 -0.3383  1.7680  1.1853
  266SOL     OW  929   0.628   2.471   1.186  0.2515 -0.0479  0.0262
  266SOL    HW1  930   0.610   2.560   1.158 -0.2094  0.3792  1.5816
  266SOL    HW2  931   0.606   2.470   1.279  0.8654 -1.6130  0.1897
  267SOL     OW  932   1.266   1.326   2.208 -0.2644  0.7936  0.1497
  267SOL    HW1  933   1.346   1.376   2.189 -0.5487  0.5631 -1.8772
  267SOL    HW2  934   1.296   1.253   2.263  1.3646 -0.4530 -2.2199
  268SOL     OW  935   1.823   0.590   1.157 -0.2351  0.7218 -0.3299
  268SOL    HW1  936   1.760   0.661   1.153 -1.6543 -0.3357  1.7017
  268SOL    HW2  937   1.782   0.518   1.109  0.6765  0.8618 -1.3658
  269SOL     OW  938   1.303   0.505   2.428  0.1700  0.1528 -0.8235
  269SOL    HW1  939   1.380   0.449   2.432 -0.5855 -0.8535 -0.1147
  269SOL    HW2  940   1.321   0.563   2.354  1.9908  0.5339 -0.1526
  270SOL     OW  941   0.766   1.244   1.670 -0.1267 -0.0145 -0.0515
  270SOL    HW1  942   0.775   1.332   1.633  1.3710  0.4201  1.2242
  270SOL    HW2  943   0.809   1.186   1.607  2.4989  0.7246  0.9379
  271SOL     OW  944   3.365   0.552   0.880  0.6061 -0.3887 -0.1684
  271SOL    HW1  945   3.405   0.611   0.817 -0.6842 -0.2731 -0.9272
  271SOL    HW2  946   3.425   0.551   0.955  1.6497  0.2796 -0.9753
  272SOL     OW  947   1.305   3.098   0.941 -0.2671 -0.2135 -0.2796
  272SOL    HW1  948   1.311   3.069   0.850  0.0506 -1.0958  0.0121
  272SOL    HW2  949   1.281   3.191   0.936  2.6744  0.6108 -1.3485
  273SOL     OW  950   0.067   2.565   3.331  0.2271 -0.2720  0.4181
  273SOL    HW1  951   0.025   2.553   3.246  2.0089 -0.3272 -0.4932
  273SOL    HW2  952   0.036   2.492   3.384 -3.1344  1.2420  0.8318
  274SOL     OW  953   1.696   2.848   1.265 -0.1062 -0.2774 -0.1369
  274SOL    HW1  954   1.641   2.789   1.213  0.6036 -0.9153 -0.1814
  274SOL    HW2  955   1.785   2.826   1.238  0.1559  1.0838 -0.4363
  275SOL     OW  956   1.844   0.099   2.041  0.7896  0.0064  0.2684
  275SOL    HW1  957   1.919   0.054   2.002  0.4162  0.6143 -1.2031
  275SOL    HW2  958   1.807   0.034   2.102  0.8551 -1.3261 -1.0557
  276SOL     OW  959   0.604   0.217   2.639 -0.2497 -0.1532 -0.0729
  276SOL    HW1  960   0.514   0.247   2.630 -0.4550 -0.5558  0.5430
  276SOL    HW2  961   0.602   0.126   2.611  0.1596  0.1020 -0.9490
  277SOL     OW  962   1.768   0.139   1.775  0.0815 -0.4197  0.0267
  277SOL    HW1  963   1.860   0.111   1.768 -0.2658 -1.4737 -0.5389
  277SOL    HW2  964   1.760   0.169   1.866  0.2300 -3.2970  1.1112
  278SOL     OW  965   1.961   1.148   0.755 -0.2789  0.3827  0.5505
  278SOL    HW1  966   1.956   1.109   0.668  0.8458 -1.6444  1.3369
  278SOL    HW2  967   2.018   1.224   0.745  1.4436 -0.9468 -0.1536
  279SOL     OW  968   0.447   2.671   1.158  0.4690  0.4961 -0.6600
  279SOL    HW1  969   0.466   2.731   1.230 -0.5862  2.3622 -1.8687
  279SOL    HW2  970   0.352   2.671   1.151  0.4301 -1.3655 -0.7100
  280SOL     OW  971   2.182   0.073   0.307  0.1992  0.5685 -0.0925
  280SOL    HW1  972   2.098   0.059   0.264  0.4948 -1.5232 -0.0748
  280SOL    HW2  973   2.182   0.011   0.381  1.9315  0.1793 -0.3667
  281SOL     OW  974   1.998   2.275   0.517  0.8783  0.1581 -0.1322
  281SOL    HW1  975   2.030   2.304   0.603 -0.6863  0.2414  0.4555
  281SOL    HW2  976   1.943   2.199   0.536  1.7599 -0.7917 -1.2509
  282SOL     OW  977   0.154   1.266   1.612  0.1676  0.5520  0.0692
  282SOL    HW1  978   0.232   1.232   1.656 -1.1226 -2.5599  0.1915
  282SOL    HW2  979   0.106   1.311   1.681  0.4836 -0.0659  0.7089
  283SOL     OW  980   1.324   1.859   3.125 -0.0538  0.6268 -0.0647
  283SOL    HW1  981   1.253   1.796   3.133 -1.4849  2.2623  0.6239
  283SOL    HW2  982   1.369   1.856   3.210 -1.0592  1.5574  0.5320
  284SOL     OW  983   2.239   3.047   3.113 -0.1245  0.6376  0.2285
  284SOL    HW1  984   2.325   3.064   3.075 -0.7396  3.0619 -0.2305
  284SOL    HW2  985   2.195   2.992   3.048  0.4058  1.0061 -0.4561
  285SOL     OW  986   3.483   2.631   1.032 -0.1390 -0.1567  0.3526
  285SOL    HW1  987   3.440   2.632   0.946  1.1387  3.4075 -0.4216
  285SOL    HW2  988   3.512   2.540   1.044 -1.7623 -1.1089 -2.2107
  286SOL     OW  989   3.323   1.862   1.256 -0.0544  0.2561 -0.1513
  286SOL    HW1  990   3.248   1.921   1.248  0.6907  1.2379 -0.1357
  286SOL    HW2  991   3.380   1.886   1.183  0.0045 -0.8524 -0.4869
  287SOL     OW  992   1.348   1.978   3.545  0.2624  0.1158  0.5309
  287SOL    HW1  993   1.367   2.051   3.603 -0.2512  0.5412  0.1696
  287SOL    HW2  994   1.271   1.936   3.583  2.0089 -1.8479  2.2196
  288SOL     OW  995   0.598   2.793   2.682 -0.1071 -0.0784  0.1224
  288SOL    HW1  996   0.622   2.782   2.590  0.8576  2.2375  0.0328
  288SOL    HW2  997   0.552   2.877   2.685 -0.7796 -0.4682  1.6439
  289SOL     OW  998   0.728   2.419   1.989 -0.6163 -0.2925 -0.4957
  289SOL    HW1  999   0.654   2.360   1.977 -0.7057  0.2480 -3.2922
  289SOL    HW2 1000   0.804   2.370   1.957 -0.3617  0.3489 -0.9075
  290SOL     OW 1001   1.484   2.762   2.434 -0.5227 -0.5705  0.2007
  290SOL    HW1 1002   1.536   2.794   2.360 -2.1295  0.5553 -0.5032
  290SOL    HW2 1003   1.538   2.693   2.473  0.6592 -0.7442 -1.6022
  291SOL     OW 1004   2.531   2.105   3.655 -0.0142 -0.0149  0.3511
  291SOL    HW1 1005   2.549   2.191   3.693  1.6684 -0.7069  1.2461
  291SOL    HW2 1006   2.615   2.077   3.620 -0.3420 -1.5988  0.7444
  292SOL     OW 1007   2.364   1.770   3.229  0.3391  0.1630 -0.1140
  292SOL    HW1 1008   2.370   1.763   3.324  1.5219 -3.1908 -0.3053
  292SOL    HW2 1009   2.455   1.774   3.199 -0.0223  1.2361 -1.1263
  293SOL     OW 1010   0.313   2.535   0.922 -0.8874  0.2426  0.2681
  293SOL    HW1 1011   0.381   2.481   0.962  0.5119  1.4716 -0.3664
  293SOL    HW2 1012   0.262   2.567   0.996 -0.8317 -0.7509  0.7509
  294SOL     OW 1013   1.258   1.260   1.376  0.0745  0.7585  0.2293
  294SOL    HW1 1014   1.185   1.210   1.339 -1.6391  2.0096  1.7130
  294SOL    HW2 1015   1.336   1.219   1.340 -1.3293 -1.0866 -0.9039
  295SOL     OW 1016   0.787   3.593   1.930  0.4079 -0.5435  0.4758
  295SOL    HW1 1017   0.842   3.531   1.978  0.3028  0.0166  1.3348
  295SOL    HW2 1018   0.847   3.664   1.906  0.6121 -1.1127 -0.8261
  296SOL     OW 1019   1.801   2.311   2.992 -0.0329 -0.7826 -0.0934
  296SOL    HW1 1020   1.858   2.283   3.063 -1.1588 -0.6251  0.9039
  296SOL    HW2 1021   1.717   2.330   3.034 -0.9605 -1.4023 -1.5490
  297SOL     OW 1022   0.342   1.709   0.306 -0.4990 -0.1948 -0.3050
  297SOL    HW1 1023   0.405   1.727   0.376 -0.2383  0.8767 -0.7954
  297SOL    HW2 1024   0.314   1.619   0.322  1.0053 -0.6375  0.0387
  298SOL     OW 1025   0.807   2.462   0.445  0.5480  0.4163  0.3859
  298SOL    HW1 1026   0.790   2.442   0.353 -0.4369  2.8685 -0.0423
  298SOL    HW2 1027   0.901   2.447   0.456  0.6187 -0.2249 -0.9344
  299SOL     OW 1028   1.109   1.699   1.947 -0.4474 -0.6531  0.1743
  299SOL    HW1 1029   1.194   1.701   1.989 -0.5163  1.6778  0.2855
  299SOL    HW2 1030   1.080   1.608   1.957  2.0335 -1.5310  0.0329
  300SOL     OW 1031   2.254   1.050   1.212 -0.0030 -1.2246 -0.8648
  300SOL    HW1 1032   2.247   1.107   1.135 -0.2769  3.4716  2.2056
  300SOL    HW2 1033   2.343   1.016   1.208  0.7450  0.6915 -2.2250
  301SOL     OW 1034   3.524   3.188   2.356  0.2286 -0.5159 -0.3869
  301SOL    HW1 1035   3.548   3.120   2.419  0.5960  1.2259  1.4529
  301SOL    HW2 1036   3.538   3.270   2.403  1.5061  0.9413 -3.1079
  302SOL     OW 1037   0.853   1.278   1.936  0.4531  1.5039  0.1977
  302SOL    HW1 1038   0.820   1.250   1.851  0.8079  0.4658  0.3968
  302SOL    HW2 1039   0.778   1.267   1.995  0.9321 -0.2503  0.5225
  303SOL     OW 1040   2.007   3.541   1.338  0.2189  0.1281 -0.5643
  303SOL    HW1 1041   1.924   3.510   1.375  0.7928 -1.3519 -0.4451
  303SOL    HW2 1042   2.021   3.626   1.378 -0.5953 -0.1792  0.4178
  304SOL     OW 1043   1.607   0.805   2.118 -0.2708 -0.1848 -0.1518
  304SOL    HW1 1044   1.566   0.870   2.176 -1.5301  1.2221 -2.4771
  304SOL    HW2 1045   1.665   0.755   2.176 -0.7758  1.6825  2.1364
  305SOL     OW 1046   2.364   1.501   3.054  0.4521 -0.2629 -0.3248
  305SOL    HW1 1047   2.305   1.534   3.123 -0.2280  0.9494 -1.4441
  305SOL    HW2 1048   2.305   1.469   2.986  1.1121 -0.9157 -0.5990
  306SOL     OW 1049   1.387   0.351   1.709  0.0398 -0.0190  0.2899
  306SOL    HW1 1050   1.358   0.262   1.730  0.4307 -0.2863 -0.2757
  306SOL    HW2 1051   1.412   0.347   1.617  0.4148  0.5866  0.3589
  307SOL     OW 1052   3.443   3.471   2.873  0.0849 -0.0866  0.3011
  307SOL    HW1 1053   3.523   3.482   2.822 -0.8224 -0.0228 -1.1985
  307SOL    HW2 1054   3.372   3.485   2.809 -1.1175 -0.6282  1.4597
  308SOL     OW 1055   1.164   3.305   1.842  0.0522 -0.5956 -0.4235
  308SOL    HW1 1056   1.255   3.323   1.819  0.7900 -2.6004  0.7073
  308SOL    HW2 1057   1.159   3.324   1.936 -0.9763  0.3648 -0.6386
  309SOL     OW 1058   2.169   0.743   1.197  0.3538 -0.0451 -0.3473
  309SOL    HW1 1059   2.147   0.761   1.105  1.6472  1.5645 -0.3832
  309SOL    HW2 1060   2.254   0.784   1.209  0.3969 -0.6111  1.4831
  310SOL     OW 1061   1.655   2.163   0.505  0.2076 -0.5873  0.3712
  310SOL    HW1 1062   1.651   2.116   0.588  0.4560  0.9104  1.2717
  310SOL    HW2 1063   1.674   2.254   0.530  0.3491 -0.1185 -1.3287
  311SOL     OW 1064  -0.019   2.162   3.096 -0.2931 -0.1896  0.7201
  311SOL    HW1 1065   0.005   2.087   3.152 -1.6664  0.4579  2.2550
  311SOL    HW2 1066   0.058   2.219   3.100  1.1436 -1.8430 -1.1933
  312SOL     OW 1067   3.466   0.108   2.659 -0.6868  0.3238 -0.0391
  312SOL    HW1 1068   3.485   0.087   2.568  0.5793  1.4636 -0.0589
  312SOL    HW2 1069   3.552   0.115   2.701 -1.0570  3.2941  0.4347
  313SOL     OW 1070   2.016   3.036   0.337  0.6549 -0.0570  0.1139
  313SOL    HW1 1071   1.976   3.098   0.398  1.3137 -0.2810  0.8012
  313SOL    HW2 1072   2.108   3.033   0.364  0.8520 -0.5262 -0.5952
  314SOL     OW 1073   1.259   2.523   1.363 -0.1989  0.3390  0.0141
  314SOL    HW1 1074   1.184   2.546   1.418  0.2538 -0.0998  0.8206
  314SOL    HW2 1075   1.229   2.541   1.274 -0.8151  1.4216  0.4141
  315SOL     OW 1076   1.588   3.361   3.499 -0.2523  0.2329  0.1980
  315SOL    HW1 1077   1.628   3.285   3.459 -1.1942  0.7215 -1.8268
  315SOL    HW2 1078   1.652   3.431   3.489 -0.4603  0.3383 -0.4598
  316SOL     OW 1079   1.066   2.969   0.543  0.3789  0.4658 -0.9499
  316SOL    HW1 1080   1.148   2.931   0.511  0.4824 -0.1999  0.0460
  316SOL    HW2 1081   1.075   3.063   0.526  1.6849  0.5139 -0.1746
  317SOL     OW 1082   0.713   0.405   2.896  0.5091  0.2753 -0.3087
  317SOL    HW1 1083   0.783   0.341   2.901 -0.9568 -1.4385 -0.8006
  317SOL    HW2 1084   0.718   0.441   2.807 -0.6316 -1.5809 -1.1806
  318SOL     OW 1085   2.831   3.571   0.963  0.1731  0.6432  0.4968
  318SOL    HW1 1086   2.923   3.594   0.973  0.4968 -0.3795 -0.0800
  318SOL    HW2 1087   2.803   3.547   1.051  0.8154 -0.3048  0.4573
  319SOL     OW 1088   1.894   0.410   1.886  0.0100 -0.1886 -0.2509
  319SOL    HW1 1089   1.890   0.460   1.968  1.4229 -0.6898  0.1548
  319SOL    HW2 1090   1.803   0.388   1.867 -0.2916 -0.9176  1.7346
  320SOL     OW 1091   1.160   0.044   3.323  0.8487  0.2440  0.3753
  320SOL    HW1 1092   1.193   0.114   3.266 -0.0810  0.4899  0.1125
  320SOL    HW2 1093   1.101  -0.006   3.267  1.8118 -1.0155  0.4511
  321SOL     OW 1094   3.114   1.603   1.603 -0.3401 -0.1497  0.4084
  321SOL    HW1 1095   3.198   1.637   1.633  0.1495 -2.0630  1.4008
  321SOL    HW2 1096   3.137   1.543   1.531 -1.0120  0.4052 -0.2876
  322SOL     OW 1097   2.929   0.210   2.304 -0.5632  0.3004 -0.3803
  322SOL    HW1 1098   2.858   0.183   2.246 -1.3175  2.2559 -0.4282
  322SOL    HW2 1099   2.965   0.288   2.262  2.7629 -1.5082 -1.2508
  323SOL     OW 1100   0.618   1.552   0.521 -0.5339 -0.3774  0.2236
  323SOL    HW1 1101   0.641   1.549   0.614 -0.3021 -4.3871  0.2176
  323SOL    HW2 1102   0.697   1.522   0.476  0.2654  3.8644 -1.6971
  324SOL     OW 1103   3.552   1.120   0.319 -0.0702 -0.1808 -0.0088
  324SOL    HW1 1104   3.610   1.183   0.275 -1.0289 -0.6064 -1.9841
  324SOL    HW2 1105   3.611   1.070   0.376  0.9047  1.6653  0.6933
  325SOL     OW 1106   1.388   0.841   0.443  0.0551  0.0276  0.5867
  325SOL    HW1 1107   1.460   0.800   0.395 -0.9759 -1.5564  0.3151
  325SOL    HW2 1108   1.378   0.788   0.522 -0.2501  0.7700  1.0642
  326SOL     OW 1109   0.088   1.509   1.832  0.1918  0.4678 -0.8551
  326SOL    HW1 1110   0.039   1.434   1.867 -2.0788  1.5819 -1.4286
  326SOL    HW2 1111   0.172   1.507   1.877  0.0800 -2.2155 -0.6238
  327SOL     OW 1112   0.267   3.091   0.209  0.4515 -0.0981  0.1462
  327SOL    HW1 1113   0.328   3.031   0.166  0.8049  0.8037 -0.6408
  327SOL    HW2 1114   0.318   3.129   0.280  0.4227 -0.2562  0.2520
  328SOL     OW 1115   1.646   3.086   0.587 -0.4890  0.5397 -0.5159
  328SOL    HW1 1116   1.712   3.018   0.575 -1.4141 -0.2056 -1.6031
  328SOL    HW2 1117   1.604   3.095   0.502 -0.8459  2.0109 -0.2176
  329SOL     OW 1118  -0.014   3.278   0.553 -0.9974  0.6947 -0.3661
  329SOL    HW1 1119  -0.030   3.198   0.503 -0.3941  0.9951 -1.0591
  329SOL    HW2 1120   0.063   3.317   0.512 -0.4010  0.8835  0.8911
  330SOL     OW 1121   3.432   0.563   1.536 -0.0320 -0.1064 -0.7647
  330SOL    HW1 1122   3.456   0.542   1.626  1.9034 -1.4168 -1.5216
  330SOL    HW2 1123   3.364   0.499   1.514  0.2543 -0.4809 -0.5671
  331SOL     OW 1124   3.009   0.778   2.337  0.0359  0.2501  0.1172
  331SOL    HW1 1125   2.918   0.748   2.344 -0.0565  0.3624 -0.5474
  331SOL    HW2 1126   3.018   0.843   2.407 -1.0366  1.8272 -1.1490
  332SOL     OW 1127   0.570   0.046   1.621  0.1066 -0.6842 -0.0010
  332SOL    HW1 1128   0.496   0.030   1.562 -0.6046  2.0425  0.0205
  332SOL    HW2 1129   0.544   0.005   1.703 -0.1754 -2.0482 -0.7467
  333SOL     OW 1130   3.641   1.651   0.369 -0.1305  0.2420  0.2128
  333SOL    HW1 1131   3.613   1.666   0.279 -1.0913 -1.4989  0.1768
  333SOL    HW2 1132   3.562   1.622   0.415  0.6029 -0.1189  1.2931
  334SOL     OW 1133   1.809   1.921   0.822  0.4107  0.2300  0.7876
  334SOL    HW1 1134   1.736   1.930   0.761  0.2060 -1.3054  0.7641
  334SOL    HW2 1135   1.773   1.946   0.907  0.4994  1.6759  0.4235
  335SOL     OW 1136   2.705   0.937   2.749 -0.7895  0.4746 -0.2970
  335SOL    HW1 1137   2.691   1.026   2.716  0.2818  0.9228  0.4134
  335SOL    HW2 1138   2.720   0.884   2.670 -1.0303  0.9944 -0.6969
  336SOL     OW 1139   1.976   2.165   2.428 -0.1170 -0.1018 -0.8803
  336SOL    HW1 1140   2.060   2.186   2.468 -0.2118 -0.1243 -0.6677
  336SOL    HW2 1141   1.934   2.250   2.412  0.8109  0.0439 -2.9014
  337SOL     OW 1142   2.721   1.232   3.136 -0.2671  0.1522  0.8567
  337SOL    HW1 1143   2.745   1.141   3.115  0.5572  0.7060 -0.8267
  337SOL    HW2 1144   2.626   1.233   3.130 -0.2323  0.3955 -4.4570
  338SOL     OW 1145   1.287   0.073   3.563  0.3233  0.6317 -0.3269
  338SOL    HW1 1146   1.233   0.055   3.487  0.1262  1.2438 -0.3369
  338SOL    HW2 1147   1.287   0.169   3.571  0.6879  0.5958  0.1876
  339SOL     OW 1148   2.638   0.269   1.708  0.6929 -0.3158 -0.2615
  339SOL    HW1 1149   2.549   0.273   1.744  1.7290  0.8387  2.4813
  339SOL    HW2 1150   2.695   0.277   1.785  3.1678  2.6123 -2.1637
  340SOL     OW 1151   2.101   0.693   3.550 -0.2484 -0.2059  0.0345
  340SOL    HW1 1152   2.010   0.672   3.527  0.1021 -0.6726 -0.9590
  340SOL    HW2 1153   2.147   0.610   3.545 -0.1798 -0.4414  2.8414
  341SOL     OW 1154   2.636   0.975   0.094  0.0744 -0.5485 -0.0981
  341SOL    HW1 1155   2.655   0.890   0.133  0.0810 -1.9419 -2.8793
  341SOL    HW2 1156   2.701   0.985   0.025  2.0032  3.1893  1.9672
  342SOL     OW 1157   2.197   1.149   3.102  0.0174 -0.2814 -0.3554
  342SOL    HW1 1158   2.193   1.161   3.197 -2.3137  0.5840 -0.5105
  342SOL    HW2 1159   2.290   1.159   3.081  0.3859  1.0807  1.6466
  343SOL     OW 1160   3.335   0.940   3.372 -0.1161  0.5171  0.5389
  343SOL    HW1 1161   3.285   1.019   3.349  2.8113  2.2477 -0.3456
  343SOL    HW2 1162   3.417   0.974   3.407  1.4338 -2.1712 -0.2944
  344SOL     OW 1163   1.439   2.510   1.058 -0.3906 -0.1312  0.3505
  344SOL    HW1 1164   1.489   2.576   1.010  1.5297 -0.8941  1.1786
  344SOL    HW2 1165   1.430   2.546   1.146 -1.2740 -0.0290  0.2251
  345SOL     OW 1166   3.052   0.362   2.554  0.1973  0.1817 -0.2882
  345SOL    HW1 1167   3.080   0.344   2.465 -0.3580  2.0597 -0.8927
  345SOL    HW2 1168   3.109   0.433   2.584 -0.6147  0.6252  0.2713
  346SOL     OW 1169   2.837   1.713   0.240  0.2372 -0.5048 -0.2193
  346SOL    HW1 1170   2.880   1.631   0.215  0.1993 -1.6484  3.0109
  346SOL    HW2 1171   2.907   1.777   0.246  0.8081 -1.1591  0.3504
  347SOL     OW 1172   0.090   0.166   0.461  0.2191  0.2023  0.8492
  347SOL    HW1 1173   0.072   0.196   0.551  1.8753  0.4059  1.1458
  347SOL    HW2 1174   0.144   0.235   0.423  0.0759 -0.1908 -0.0964
  348SOL     OW 1175   1.683   0.191   3.149 -0.0233  0.3691  0.2840
  348SOL    HW1 1176   1.689   0.162   3.240  2.4894  2.1816  0.7923
  348SOL    HW2 1177   1.727   0.122   3.099 -1.2330 -0.5320  0.4035
  349SOL     OW 1178   2.338   0.353   2.458 -0.6656 -0.4973  0.4015
  349SOL    HW1 1179   2.288   0.277   2.485 -0.8487 -0.5480 -0.0658
  349SOL    HW2 1180   2.410   0.318   2.406 -2.2189 -0.2414 -2.0914
  350SOL     OW 1181   2.450   1.585   2.577  0.1611  0.1304  0.3016
  350SOL    HW1 1182   2.358   1.585   2.552  0.3551  0.2817 -0.4685
  350SOL    HW2 1183   2.473   1.678   2.584  0.5548  0.1386 -0.7655
  351SOL     OW 1184   3.684   0.209   2.473 -0.4857 -0.3244  0.3087
  351SOL    HW1 1185   3.736   0.239   2.399 -1.2470 -0.2090 -0.1913
  351SOL    HW2 1186   3.748   0.170   2.534  0.5012  2.0888  0.9062
  352SOL     OW 1187   3.657   0.904   1.873  0.2352  0.6246  0.2703
  352SOL    HW1 1188   3.736   0.939   1.915  0.1004  0.1590  0.9267
  352SOL    HW2 1189   3.635   0.827   1.925 -0.8548  0.9488  0.3166
  353SOL     OW 1190   1.331   2.184   0.665  0.2028  0.1239 -0.3823
  353SOL    HW1 1191   1.323   2.187   0.760 -0.6121 -2.9151 -0.2597
  353SOL    HW2 1192   1.242   2.196   0.632  0.1709 -0.7812 -0.6502
  354SOL     OW 1193   2.670   0.184   1.131 -0.7332 -0.8600 -0.1707
  354SOL    HW1 1194   2.674   0.152   1.221 -0.3806 -0.3781 -0.0090
  354SOL    HW2 1195   2.643   0.108   1.079 -1.8164 -0.9220  0.4481
  355SOL     OW 1196   0.282   3.357   2.588 -0.4795  0.2440  0.0796
  355SOL    HW1 1197   0.198   3.373   2.631 -0.0180 -0.2372  1.1981
  355SOL    HW2 1198   0.347   3.370   2.657  0.3609  0.4741 -0.7372
  356SOL     OW 1199   0.331   0.418   0.397  0.1694  0.1028  0.1222
  356SOL    HW1 1200   0.407   0.364   0.377 -2.2229 -4.4009  1.6929
  356SOL    HW2 1201   0.354   0.464   0.478  0.9197 -2.1876  1.3014
  357SOL     OW 1202   0.388   0.844   0.734 -0.1246 -0.4710  0.2141
  357SOL    HW1 1203   0.299   0.834   0.768 -0.2709 -0.4443 -0.1555
  357SOL    HW2 1204   0.432   0.899   0.799 -0.1076 -1.2218  0.8579
  358SOL     OW 1205   2.846   1.869   3.292 -0.2575  0.4535  0.6553
  358SOL    HW1 1206   2.910   1.901   3.356  0.6125 -2.4441  1.4006
  358SOL    HW2 1207   2.811   1.790   3.332  0.8452 -1.9257 -2.6674
  359SOL     OW 1208   1.722   0.897   0.588  0.2565 -0.6182 -0.1388
  359SOL    HW1 1209   1.787   0.897   0.517 -0.1248  1.5975 -0.5623
  359SOL    HW2 1210   1.728   0.984   0.626 -2.6280 -0.1998 -0.3817
  360SOL     OW 1211   0.641   1.165   3.634 -0.4392  0.0482 -0.2152
  360SOL    HW1 1212   0.548   1.186   3.632 -0.7053 -0.7181  1.4840
  360SOL    HW2 1213   0.676   1.218   3.706 -0.0205 -1.1446  0.5069
  361SOL     OW 1214   1.045   0.792   0.708  0.6219 -0.3678 -0.6473
  361SOL    HW1 1215   1.133   0.816   0.737  0.3718  0.6388 -0.7050
  361SOL    HW2 1216   0.986   0.842   0.766  0.0643 -1.7033 -0.0150
  362SOL     OW 1217   1.556   1.244   2.723  0.4236  0.2566  0.1576
  362SOL    HW1 1218   1.617   1.232   2.650  0.9315 -1.6903  0.8526
  362SOL    HW2 1219   1.596   1.314   2.776  0.9219  0.5044 -0.5289
  363SOL     OW 1220   3.497   1.139   3.188  0.0941  0.2218  0.3621
  363SOL    HW1 1221   3.441   1.094   3.126 -2.2504  0.7932  1.9295
  363SOL    HW2 1222   3.563   1.074   3.213 -0.2347 -0.6820 -1.0572
  364SOL     OW 1223   2.742   0.146   2.127 -0.4140 -0.5878  0.6194
  364SOL    HW1 1224   2.683   0.167   2.200  0.7849  0.4907  1.3121
  364SOL    HW2 1225   2.746   0.227   2.076 -2.8927 -1.8805 -1.9453
  365SOL     OW 1226   3.632   3.307   1.015 -0.0427 -0.2642 -0.0961
  365SOL    HW1 1227   3.655   3.371   0.947 -1.0512  0.9063  0.5960
  365SOL    HW2 1228   3.620   3.360   1.094  0.6646 -1.5401  0.8983
  366SOL     OW 1229   2.593   3.712   0.997 -0.0849 -0.2113  0.5631
  366SOL    HW1 1230   2.663   3.667   0.951 -1.0316 -1.3009  0.1549
  366SOL    HW2 1231   2.513   3.666   0.972 -0.8579  0.4283  1.7331
  367SOL     OW 1232   3.553   2.914   2.479  0.8524 -0.1074 -0.5065
  367SOL    HW1 1233   3.633   2.864   2.463 -0.4332 -1.8979 -1.6390
  367SOL    HW2 1234   3.485   2.866   2.432 -1.2848  0.2159  2.0684
  368SOL     OW 1235   2.168   1.962   2.682  0.0196 -0.0514  0.3555
  368SOL    HW1 1236   2.146   2.037   2.737  1.1636  1.7195 -1.4636
  368SOL    HW2 1237   2.228   1.997   2.616 -0.8447 -2.1592 -1.7069
  369SOL     OW 1238   0.050   3.116   0.929 -0.0093  0.3191  0.3124
  369SOL    HW1 1239   0.002   3.185   0.975  0.7154  0.0169  1.5701
  369SOL    HW2 1240   0.132   3.107   0.979  0.7530 -0.1239 -0.9714
  370SOL     OW 1241   2.329   0.992   3.584  0.5502  0.3583 -0.3924
  370SOL    HW1 1242   2.375   1.004   3.668  0.6362  0.7442 -0.4931
  370SOL    HW2 1243   2.250   0.942   3.607  0.6893  0.2615 -0.1171
  371SOL     OW 1244   1.561   2.027   0.747  0.0616 -1.0573 -0.5009
  371SOL    HW1 1245   1.510   2.010   0.827  1.2245 -0.3199  0.4271
  371SOL    HW2 1246   1.506   2.086   0.696 -1.2221 -2.4757 -0.8281
  372SOL     OW 1247   0.698   2.895   0.230  0.2328  0.1963 -0.0333
  372SOL    HW1 1248   0.691   2.933   0.318 -0.3974 -0.3669  0.1725
  372SOL    HW2 1249   0.751   2.816   0.243  1.1146  0.7257 -0.3675
  373SOL     OW 1250   3.265   2.056   0.688  0.2722  0.7671 -0.3457
  373SOL    HW1 1251   3.263   1.965   0.717  0.8271  0.4478 -1.2621
  373SOL    HW2 1252   3.347   2.091   0.723  1.1544  0.2583 -1.8211
  374SOL     OW 1253   1.234   3.536   2.009  0.0939 -0.3011  0.1792
  374SOL    HW1 1254   1.292   3.532   1.934 -0.9943  0.3887 -0.7337
  374SOL    HW2 1255   1.250   3.622   2.048  0.4605 -0.5488  0.5865
  375SOL     OW 1256   1.390   1.573   2.124 -0.4865  0.2547 -0.4253
  375SOL    HW1 1257   1.430   1.651   2.163 -1.2687  0.9990 -1.0773
  375SOL    HW2 1258   1.451   1.546   2.055  0.7700 -0.9057  1.0460
  376SOL     OW 1259   2.204   1.337   2.889  0.2241  0.4363 -0.4008
  376SOL    HW1 1260   2.170   1.262   2.937 -0.1261  1.1942  0.5588
  376SOL    HW2 1261   2.285   1.305   2.850  0.3519 -0.2849  0.4258
  377SOL     OW 1262   2.349   0.814   0.137 -0.4662  0.3393 -0.1150
  377SOL    HW1 1263   2.355   0.719   0.125  0.9695  0.3531  0.2136
  377SOL    HW2 1264   2.426   0.835   0.190 -2.1093  1.3386  2.0613
  378SOL     OW 1265  -0.015   1.675   1.130  0.1811  0.1378  0.7493
  378SOL    HW1 1266   0.037   1.690   1.209  1.5568  0.1026 -0.1259
  378SOL    HW2 1267   0.044   1.628   1.070  0.1759  2.6306 -1.3840
  379SOL     OW 1268   1.728   3.716   3.398  0.2821 -0.3414 -0.0859
  379SOL    HW1 1269   1.666   3.720   3.470 -0.6644  0.1143 -0.8980
  379SOL    HW2 1270   1.692   3.648   3.340 -0.7663  1.4585 -1.6887
  380SOL     OW 1271   1.936   1.376   1.323 -0.0251 -0.8791  0.2230
  380SOL    HW1 1272   1.988   1.401   1.246  0.9748  1.0324  1.4683
  380SOL    HW2 1273   1.847   1.369   1.290  0.4722 -0.6862 -1.2341
  381SOL     OW 1274   0.435   1.418   1.511  0.4010  0.0137 -0.0676
  381SOL    HW1 1275   0.453   1.467   1.431 -0.9708 -0.8322 -0.9346
  381SOL    HW2 1276   0.342   1.433   1.528  0.3527 -0.9183  0.5914
  382SOL     OW 1277   1.123   3.019   2.025  0.2232 -0.0960 -0.6944
  382SOL    HW1 1278   1.040   3.051   1.991 -0.0227  0.3387  0.2970
  382SOL    HW2 1279   1.148   2.949   1.964 -1.6679 -1.3592 -0.0923
  383SOL     OW 1280   1.283   0.404   1.354 -0.0935 -0.1024 -0.1626
  383SOL    HW1 1281   1.374   0.411   1.381  0.3361  0.6350 -1.6829
  383SOL    HW2 1282   1.248   0.493   1.363 -0.8073 -0.4645  0.8306
  384SOL     OW 1283   1.996   1.815   0.998  0.2132  0.1751  0.4977
  384SOL    HW1 1284   1.926   1.777   1.051  0.3609 -0.6967  0.0823
  384SOL    HW2 1285   1.951   1.876   0.940 -0.3085 -0.8574 -0.2162
  385SOL     OW 1286   1.116   1.123   0.496 -0.0727 -0.2007  0.7691
  385SOL    HW1 1287   1.075   1.160   0.575 -0.5950 -1.0839  0.9262
  385SOL    HW2 1288   1.091   1.031   0.497 -1.7405  0.1364 -1.4509
  386SOL     OW 1289   0.079   1.272   3.751  0.5304  0.8981 -0.4031
  386SOL    HW1 1290   0.162   1.318   3.740  0.8240  0.3788 -0.3843
  386SOL    HW2 1291   0.068   1.220   3.671 -1.0381  2.8908 -1.5792
  387SOL     OW 1292   2.716   0.562   2.202  0.3619 -0.3090 -0.2839
  387SOL    HW1 1293   2.680   0.642   2.240 -1.4218 -0.5005 -1.4572
  387SOL    HW2 1294   2.755   0.515   2.276 -0.2176  0.7761  0.7312
  388SOL     OW 1295   1.292   3.202   3.633 -0.3214 -0.4266  0.1470
  388SOL    HW1 1296   1.335   3.206   3.547 -0.4212 -0.5664  0.0895
  388SOL    HW2 1297   1.276   3.293   3.656 -2.7291 -0.4139 -1.2084
  389SOL     OW 1298   3.056   0.726   0.684 -0.0268  0.2189  0.1258
  389SOL    HW1 1299   2.992   0.797   0.684 -1.0268 -0.6188  1.5682
  389SOL    HW2 1300   3.100   0.733   0.769  2.3238  1.1784 -1.0853
  390SOL     OW 1301   3.122   1.740   2.601 -0.2705  0.0686  0.3936
  390SOL    HW1 1302   3.096   1.784   2.681  2.0610  0.7778  0.8230
  390SOL    HW2 1303   3.144   1.651   2.629 -1.1784 -0.2308  0.1981
  391SOL     OW 1304   1.528   1.251   3.621  0.0667 -0.4344  0.1981
  391SOL    HW1 1305   1.453   1.205   3.660  2.1795 -1.7688  3.0760
  391SOL    HW2 1306   1.529   1.336   3.665 -3.0560  2.2826 -4.1761
  392SOL     OW 1307   2.261   1.683   2.826 -0.0706 -0.6380  0.4390
  392SOL    HW1 1308   2.246   1.765   2.780  0.6069 -0.4491  0.5429
  392SOL    HW2 1309   2.347   1.694   2.867  0.2588 -1.5911  0.0364
  393SOL     OW 1310   1.054   0.872   1.220  1.2026  0.1757  0.4987
  393SOL    HW1 1311   1.002   0.849   1.298  1.2204  0.7973  0.7038
  393SOL    HW2 1312   1.144   0.872   1.251  1.1347  1.4916  0.7745
  394SOL     OW 1313   2.850   2.191   0.880  0.7298 -0.1863 -0.0887
  394SOL    HW1 1314   2.848   2.276   0.835  0.8696 -0.2189 -0.1573
  394SOL    HW2 1315   2.936   2.189   0.923  0.1349  0.3664  1.1885
  395SOL     OW 1316   2.840   3.689   1.951 -0.7872 -0.1052  0.6761
  395SOL    HW1 1317   2.908   3.623   1.957 -0.7664 -0.3948 -1.7489
  395SOL    HW2 1318   2.852   3.743   2.029 -1.4912 -3.4770  3.3637
  396SOL     OW 1319   2.805   0.978   3.037  0.2341 -0.2537  0.3056
  396SOL    HW1 1320   2.900   0.977   3.023  0.0542  0.0102 -1.0918
  396SOL    HW2 1321   2.768   0.967   2.949 -1.0236  1.6878  0.5368
  397SOL     OW 1322   1.094   1.397   0.544  0.5050  0.4024  0.0818
  397SOL    HW1 1323   1.036   1.474   0.545 -1.5867 -0.9951 -2.0102
  397SOL    HW2 1324   1.096   1.370   0.452  0.0586 -2.8052  0.9007
  398SOL     OW 1325   1.645   1.907   1.486  0.1436 -0.4957  0.1757
  398SOL    HW1 1326   1.680   1.857   1.412  0.5056  1.2958 -0.9216
  398SOL    HW2 1327   1.705   1.889   1.558 -0.6178 -2.8420  0.2986
  399SOL     OW 1328   0.489   2.392   3.658 -0.2575 -0.0485 -0.2182
  399SOL    HW1 1329   0.499   2.301   3.631  0.2390 -0.4123  1.1078
  399SOL    HW2 1330   0.396   2.403   3.676 -0.3021 -0.3158 -0.2887
  400SOL     OW 1331   1.557   0.023   3.612  0.0560  0.5314 -0.4990
  400SOL    HW1 1332   1.561   0.069   3.696 -0.5513 -1.6698  0.7997
  400SOL    HW2 1333   1.504   0.081   3.557 -0.0276  1.7588  0.7991
  401SOL     OW 1334   0.205   0.892   3.366  0.1253  0.4789  0.3254
  401SOL    HW1 1335   0.118   0.895   3.326 -0.2311 -0.3075  0.9905
  401SOL    HW2 1336   0.247   0.815   3.327  0.7234  1.1481 -0.3687
  402SOL     OW 1337   0.097   0.857   2.610 -0.5107 -0.9684  0.2933
  402SOL    HW1 1338   0.080   0.843   2.703  0.3473  1.3307  0.8757
  402SOL    HW2 1339   0.183   0.817   2.595  0.4365  0.6367  1.1180
  403SOL     OW 1340   0.714   2.539   0.741 -0.3868 -0.2083  0.5564
  403SOL    HW1 1341   0.731   2.625   0.779  0.5866 -0.7000  1.2814
  403SOL    HW2 1342   0.784   2.528   0.676  0.1755 -0.8987  1.2571
  404SOL     OW 1343   2.087   1.755   0.073  0.1062 -0.0616  0.0313
  404SOL    HW1 1344   2.113   1.803  -0.006  0.2074  0.0235  0.1169
  404SOL    HW2 1345   2.160   1.694   0.089 -0.1440 -0.4375 -0.2352
  405SOL     OW 1346   2.446   0.163   0.359  0.5394  0.5867  0.3316
  405SOL    HW1 1347   2.360   0.162   0.316  0.4011  0.1947  0.6167
  405SOL    HW2 1348   2.484   0.077   0.338 -0.1539 -0.2330  2.2565
  406SOL     OW 1349   0.011   2.465   1.183 -0.6128 -0.9948 -0.6412
  406SOL    HW1 1350  -0.015   2.460   1.090 -1.1341 -1.0631 -0.4960
  406SOL    HW2 1351   0.027   2.374   1.208  0.4490 -0.9006 -0.9093
  407SOL     OW 1352   1.281   2.058   2.264  0.5643 -0.0129  0.3290
  407SOL    HW1 1353   1.377   2.054   2.254  0.3526 -0.8217 -2.3298
  407SOL    HW2 1354   1.262   1.999   2.336  2.0004 -0.9283  0.0072
  408SOL     OW 1355   2.128   0.473   0.610  0.0229 -0.3063  0.7092
  408SOL    HW1 1356   2.098   0.431   0.530  1.2838 -1.0217  0.5882
  408SOL    HW2 1357   2.056   0.461   0.672 -0.4394 -0.8673  0.0719
  409SOL     OW 1358   0.499   2.614   2.468 -0.0621 -0.1379 -0.3770
  409SOL    HW1 1359   0.490   2.584   2.559 -2.4058  0.8651 -0.2032
  409SOL    HW2 1360   0.470   2.539   2.415 -0.0269 -0.2633 -0.2180
  410SOL     OW 1361   2.045   0.088   3.501 -0.8950 -0.3627 -0.1797
  410SOL    HW1 1362   1.952   0.105   3.487 -0.5529  1.0019 -1.0054
  410SOL    HW2 1363   2.061   0.003   3.459 -1.3993  0.2692 -1.7127
  411SOL     OW 1364   3.247   0.498   2.672  0.1212  0.3396  0.3119
  411SOL    HW1 1365   3.291   0.533   2.595 -2.4229  1.5785 -0.6660
  411SOL    HW2 1366   3.236   0.573   2.730 -3.1923  0.8065 -0.7440
  412SOL     OW 1367   1.161   2.022   0.342  0.6083 -0.4864 -0.1030
  412SOL    HW1 1368   1.251   2.055   0.350  0.3472  0.2901 -0.2872
  412SOL    HW2 1369   1.110   2.098   0.315  0.0213 -1.0977 -0.7564
  413SOL     OW 1370   1.776   2.695   3.513 -0.0284 -0.1165 -0.4567
  413SOL    HW1 1371   1.795   2.661   3.600 -1.3435  0.7598  0.2026
  413SOL    HW2 1372   1.841   2.764   3.499 -0.4782  0.4776  0.3086
  414SOL     OW 1373   3.581   2.604   2.595 -0.2699  0.3533 -0.1372
  414SOL    HW1 1374   3.504   2.583   2.647  1.1523 -1.3830  1.4458
  414SOL    HW2 1375   3.600   2.695   2.616 -1.3348  0.5169  0.1797
  415SOL     OW 1376   0.337   2.614   3.063  0.3503 -0.3182  0.3629
  415SOL    HW1 1377   0.331   2.558   3.141 -0.1004  2.5786  2.6190
  415SOL    HW2 1378   0.249   2.651   3.054  0.6678  0.1748 -0.9274
  416SOL     OW 1379   0.295   2.430   2.116  0.0560  0.3798  0.0151
  416SOL    HW1 1380   0.207   2.402   2.139  0.1341  0.2824  0.1972
  416SOL    HW2 1381   0.353   2.367   2.158  0.3167  1.9182  2.1427
  417SOL     OW 1382   0.154   3.424   2.328 -0.3009 -0.2127  0.2286
  417SOL    HW1 1383   0.220   3.399   2.393 -1.1944 -1.5138  0.6998
  417SOL    HW2 1384   0.203   3.460   2.255  0.8853 -0.6003  0.8134
  418SOL     OW 1385   2.915   2.940   3.483 -0.1335  0.4890 -0.1797
  418SOL    HW1 1386   2.945   2.913   3.570 -0.4892  1.1632  0.1623
  418SOL    HW2 1387   2.865   2.866   3.451 -1.3916  0.8317  0.8827
  419SOL     OW 1388   3.729   0.465   0.946 -0.0092 -0.1946  0.2167
  419SOL    HW1 1389   3.690   0.550   0.924  1.7851  0.3332 -1.1700
  419SOL    HW2 1390   3.655   0.411   0.975 -1.5200  1.1637 -0.9372
  420SOL     OW 1391   0.088   1.837   0.340 -0.4421  0.1392  0.2289
  420SOL    HW1 1392   0.166   1.782   0.348 -0.3350  0.3687  0.8417
  420SOL    HW2 1393   0.015   1.778   0.357 -0.4108 -0.1077 -0.4935
  421SOL     OW 1394   1.483   0.213   3.380  0.2975  0.1104  0.4520
  421SOL    HW1 1395   1.535   0.293   3.370  0.3607  0.2440  1.6267
  421SOL    HW2 1396   1.476   0.177   3.292 -0.0712  1.6218 -0.1593
  422SOL     OW 1397   3.359   3.411   3.437 -0.5187  0.0714  0.2361
  422SOL    HW1 1398   3.335   3.471   3.366 -0.5561  0.9117  0.9496
  422SOL    HW2 1399   3.311   3.331   3.418  0.0561  0.0167 -1.1061
  423SOL     OW 1400   3.196   1.584   1.248 -0.1130  0.1900 -0.3325
  423SOL    HW1 1401   3.172   1.503   1.203 -2.3397  0.6482 -0.0900
  423SOL    HW2 1402   3.287   1.570   1.274 -0.5463 -2.4350  0.1168
  424SOL     OW 1403   3.699   0.258   3.378  0.5092 -0.1235  0.7200
  424SOL    HW1 1404   3.745   0.186   3.334  0.4263  0.5182 -0.4337
  424SOL    HW2 1405   3.609   0.252   3.346  0.5696  0.6717  0.4019
  425SOL     OW 1406   0.858   0.020   1.060  0.0058 -0.1677 -0.0873
  425SOL    HW1 1407   0.790   0.050   1.120  0.2197  0.1304  0.0107
  425SOL    HW2 1408   0.887   0.100   1.015 -2.2921 -0.7629 -2.8851
  426SOL     OW 1409   1.510   1.067   1.348 -0.2291 -1.1368  0.1458
  426SOL    HW1 1410   1.598   1.030   1.356 -0.1226 -0.8708  0.2175
  426SOL    HW2 1411   1.524   1.157   1.317 -0.1555  0.4391  4.1495
  427SOL     OW 1412   0.840   2.161   0.771  0.3895 -0.2285  0.1041
  427SOL    HW1 1413   0.862   2.145   0.863 -0.8172  1.3655  0.7125
  427SOL    HW2 1414   0.744   2.167   0.771  0.4166  0.4131 -1.1447
  428SOL     OW 1415   0.548   0.194   2.295 -0.2572  0.3920 -0.6152
  428SOL    HW1 1416   0.633   0.235   2.312  0.4187 -0.9170 -0.6920
  428SOL    HW2 1417   0.566   0.128   2.227 -1.1467 -0.5336  0.0157
  429SOL     OW 1418   3.174   2.248   3.423 -0.2358 -0.0784 -0.4887
  429SOL    HW1 1419   3.207   2.174   3.373  1.4384  0.6883 -0.5766
  429SOL    HW2 1420   3.166   2.319   3.359 -0.6744  0.1651 -0.1759
  430SOL     OW 1421   3.623   2.123   2.204 -0.1094  0.0143  0.3104
  430SOL    HW1 1422   3.609   2.043   2.255  3.3883 -1.2902 -0.4622
  430SOL    HW2 1423   3.716   2.144   2.217 -0.5743  3.2533 -0.5777
  431SOL     OW 1424   1.174   3.540   0.311  0.4204 -0.3020 -0.0457
  431SOL    HW1 1425   1.178   3.455   0.267 -0.6975 -1.1656  1.4553
  431SOL    HW2 1426   1.108   3.529   0.380  1.4114  1.2961  1.2229
  432SOL     OW 1427   2.333   0.608   1.524 -0.7317  0.2384 -0.1208
  432SOL    HW1 1428   2.398   0.593   1.592  0.2707  0.5485 -0.9925
  432SOL    HW2 1429   2.355   0.545   1.455 -1.8111 -0.1569 -0.1306
  433SOL     OW 1430   3.152   1.471   3.688  0.2440 -0.3836  0.3879
  433SOL    HW1 1431   3.116   1.538   3.630  1.5083  0.7117  0.8094
  433SOL    HW2 1432   3.210   1.419   3.632  0.9285  0.2390  0.5129
  434SOL     OW 1433   0.969   0.089   0.734 -0.0814  0.3050 -0.4860
  434SOL    HW1 1434   0.875   0.083   0.722 -0.0910  1.5773 -1.2299
  434SOL    HW2 1435   0.981   0.146   0.811  0.0791 -0.2518 -0.0935
  435SOL     OW 1436   0.631   0.487   1.849 -0.0240 -0.4166 -0.4942
  435SOL    HW1 1437   0.550   0.483   1.797  0.0973 -0.3612 -0.6881
  435SOL    HW2 1438   0.685   0.416   1.814 -0.6663 -1.5837  0.7896
  436SOL     OW 1439   0.894   0.772   1.418 -0.3110  0.0731  0.6376
  436SOL    HW1 1440   0.887   0.678   1.433 -0.1764  0.1275  1.0487
  436SOL    HW2 1441   0.938   0.806   1.496 -1.8366  0.7042  1.2513
  437SOL     OW 1442   1.133   0.845   0.380 -0.0446  0.4735 -0.3281
  437SOL    HW1 1443   1.113   0.752   0.393 -0.8268  0.7114  0.2263
  437SOL    HW2 1444   1.227   0.851   0.394  0.1375 -0.3522 -1.0764
  438SOL     OW 1445   2.213   0.573   2.121  0.2601 -0.1979  0.2348
  438SOL    HW1 1446   2.292   0.537   2.082  0.1885  0.3989 -0.4834
  438SOL    HW2 1447   2.221   0.553   2.214 -0.0184 -2.4846 -0.1727
  439SOL     OW 1448   0.628   3.534   0.935 -0.4268  0.1435 -0.1987
  439SOL    HW1 1449   0.541   3.495   0.945 -0.4492  0.6320  1.7644
  439SOL    HW2 1450   0.679   3.502   1.009  0.7528  0.7110 -0.7282
  440SOL     OW 1451   3.509   2.185   3.393 -0.2688 -0.5459 -0.0173
  440SOL    HW1 1452   3.469   2.149   3.472 -0.4525  2.1281  1.2165
  440SOL    HW2 1453   3.537   2.108   3.343 -0.6593 -2.3510  2.3676
  441SOL     OW 1454   2.279   2.488   3.630  0.7386 -0.4393 -0.0140
  441SOL    HW1 1455   2.216   2.509   3.699 -1.0280  1.4643 -2.0461
  441SOL    HW2 1456   2.233   2.428   3.572  1.1569  0.1412 -0.9802
  442SOL     OW 1457   3.031   0.883   3.446  0.6521 -0.5023  0.3723
  442SOL    HW1 1458   2.998   0.964   3.406 -1.9752 -2.1852 -1.2057
  442SOL    HW2 1459   3.115   0.868   3.404  0.9892  1.1659  0.3844
  443SOL     OW 1460   3.307   1.746   0.739 -0.0179  0.7307  1.2012
  443SOL    HW1 1461   3.271   1.737   0.827  0.1983 -2.4204  1.0571
  443SOL    HW2 1462   3.401   1.730   0.750  0.8129  4.3564  0.8833
  444SOL     OW 1463   2.881   0.637   3.432 -0.6948 -0.6522 -0.3169
  444SOL    HW1 1464   2.939   0.712   3.443 -0.2840 -1.0193  0.1025
  444SOL    HW2 1465   2.830   0.657   3.354  0.5413 -0.6562 -1.1484
  445SOL     OW 1466   1.430   2.475   0.574 -0.2016  0.2869  0.5257
  445SOL    HW1 1467   1.401   2.476   0.666  0.5018  0.6228  0.7531
  445SOL    HW2 1468   1.520   2.443   0.578 -0.1269  0.4196 -0.0400
  446SOL     OW 1469   0.921   3.411   1.715  0.0059 -0.3605 -0.1779
  446SOL    HW1 1470   0.871   3.416   1.797 -0.6075  0.0358 -0.5614
  446SOL    HW2 1471   0.997   3.357   1.736 -0.0269 -0.0816  0.7107
  447SOL     OW 1472   0.900   0.985   3.695 -0.2113 -0.3757 -0.1110
  447SOL    HW1 1473   0.808   1.013   3.698 -0.4331 -1.0850  0.0963
  447SOL    HW2 1474   0.911   0.933   3.774  0.2769 -0.5834 -0.3135
  448SOL     OW 1475   0.707   3.719   0.383  0.1023 -0.3921  0.3104
  448SOL    HW1 1476   0.760   3.775   0.327 -0.8928  0.6774  0.3893
  448SOL    HW2 1477   0.763   3.645   0.404  0.8832 -0.2555 -1.1716
  449SOL     OW 1478   0.200   2.157   0.213  0.2753 -0.7418 -0.0827
  449SOL    HW1 1479   0.183   2.216   0.287  2.3083  3.1343 -2.3662
  449SOL    HW2 1480   0.132   2.179   0.150  0.3355 -1.7890 -0.5187
  450SOL     OW 1481   1.198   1.807   0.493  0.1605 -0.8288 -0.0707
  450SOL    HW1 1482   1.227   1.737   0.434  0.8617 -0.7863  0.2107
  450SOL    HW2 1483   1.173   1.879   0.434 -0.2488 -1.1931 -0.3480
  451SOL     OW 1484   1.010   1.741   0.873 -0.2072 -1.1023 -0.3508
  451SOL    HW1 1485   0.987   1.806   0.940 -1.7281 -0.5945 -1.3329
  451SOL    HW2 1486   1.049   1.669   0.923  1.1436  0.3517  0.8104
  452SOL     OW 1487   2.077   1.041   0.518  0.1486 -0.0851 -0.5083
  452SOL    HW1 1488   2.103   1.066   0.430 -0.3830  2.4537  0.0030
  452SOL    HW2 1489   2.103   0.948   0.525  0.2023 -0.3406 -3.2754
  453SOL     OW 1490   1.002   1.808   2.289  0.2359  0.3336  0.8203
  453SOL    HW1 1491   0.933   1.745   2.271  0.6057 -0.1184  0.9751
  453SOL    HW2 1492   0.988   1.877   2.224 -0.8029  0.6143  1.3213
  454SOL     OW 1493   0.381   1.883   1.113 -0.1970 -0.1911 -0.5922
  454SOL    HW1 1494   0.406   1.872   1.021  1.2142  0.3599 -0.2957
  454SOL    HW2 1495   0.331   1.965   1.115  2.3595  1.4538 -0.4440
  455SOL     OW 1496   2.797   0.696   0.895  0.0353  0.3341 -0.4574
  455SOL    HW1 1497   2.812   0.651   0.812 -0.8032 -1.4248  0.2996
  455SOL    HW2 1498   2.734   0.641   0.941  1.4748  0.5392  1.9296
  456SOL     OW 1499   1.578   1.745   0.717 -0.3180  0.1525  0.0327
  456SOL    HW1 1500   1.517   1.817   0.727  0.0661  0.5733 -0.5977
  456SOL    HW2 1501   1.525   1.672   0.685 -0.8578 -0.1004  1.4609
  457SOL     OW 1502   0.663   1.370   1.119 -0.6388  0.2650  0.1714
  457SOL    HW1 1503   0.594   1.426   1.155 -0.7134  0.2557  0.0406
  457SOL    HW2 1504   0.671   1.397   1.027  0.1927  0.9389  0.4248
  458SOL     OW 1505   1.351   2.463   2.805  0.5745  0.3561 -0.2448
  458SOL    HW1 1506   1.312   2.389   2.850  0.8595  0.5993  0.4141
  458SOL    HW2 1507   1.423   2.492   2.862  1.5001  0.1387 -1.2621
  459SOL     OW 1508   0.277   0.528   2.722 -0.1796  0.2190 -0.8640
  459SOL    HW1 1509   0.249   0.552   2.634 -1.3108  1.9004 -0.0966
  459SOL    HW2 1510   0.290   0.433   2.719 -2.0516 -0.0333 -2.3335
  460SOL     OW 1511   1.371   2.272   1.349  0.1190 -0.0271 -0.1885
  460SOL    HW1 1512   1.303   2.338   1.357 -0.8416 -1.1316  1.3636
  460SOL    HW2 1513   1.424   2.300   1.274 -1.1014  1.6928 -0.4531
  461SOL     OW 1514   3.065   1.993   1.137  0.1045  0.2340 -0.4034
  461SOL    HW1 1515   3.018   2.073   1.163  0.4483  0.6698 -1.0790
  461SOL    HW2 1516   3.031   1.925   1.194 -0.8882  0.6748 -0.4502
  462SOL     OW 1517   0.586   0.192   0.909  0.0040  0.5530 -0.0803
  462SOL    HW1 1518   0.534   0.229   0.837 -0.5889 -3.1836 -1.8077
  462SOL    HW2 1519   0.644   0.129   0.867  0.0603 -1.3927  2.6457
  463SOL     OW 1520   2.365   1.473   3.403  0.5281  0.5104 -0.4900
  463SOL    HW1 1521   2.287   1.475   3.347  0.9036 -0.0207 -1.0366
  463SOL    HW2 1522   2.438   1.485   3.342  0.8464  1.6389  0.0931
  464SOL     OW 1523   2.097   1.376   0.760  0.4606 -0.4662  0.5091
  464SOL    HW1 1524   2.068   1.466   0.776  3.7055  0.6696  0.8288
  464SOL    HW2 1525   2.180   1.386   0.712  1.1063 -3.2809  0.8774
  465SOL     OW 1526   3.000   0.187   3.177  0.2808 -0.0505 -0.2298
  465SOL    HW1 1527   3.016   0.266   3.229  2.7079 -0.8857  0.4389
  465SOL    HW2 1528   3.021   0.213   3.087 -0.7313  0.5314 -0.3101
  466SOL     OW 1529   3.668   0.526   0.636 -0.4061 -0.6068 -0.4216
  466SOL    HW1 1530   3.575   0.507   0.627 -0.5728 -0.2388  0.4687
  466SOL    HW2 1531   3.673   0.594   0.704  0.4020  0.3575 -1.3937
  467SOL     OW 1532   1.344   0.350   3.606 -0.2306 -0.9911  0.3702
  467SOL    HW1 1533   1.375   0.346   3.515 -1.6155  0.2759 -0.1939
  467SOL    HW2 1534   1.364   0.439   3.634 -0.2236 -1.2406  1.1638
  468SOL     OW 1535   1.324   1.205   2.841  0.3544 -0.3821 -0.0206
  468SOL    HW1 1536   1.248   1.235   2.790 -0.2289 -0.2505  0.9127
  468SOL    HW2 1537   1.399   1.243   2.795 -0.3273  2.4191  0.9390
  469SOL     OW 1538   2.059   2.010   1.664 -0.2447  0.0740 -0.3759
  469SOL    HW1 1539   2.084   2.091   1.708 -0.2567  0.1955 -0.5899
  469SOL    HW2 1540   2.126   1.947   1.690 -0.4068  0.0679  0.0370
  470SOL     OW 1541   2.418   0.851   0.687  0.3433  0.3126 -0.0110
  470SOL    HW1 1542   2.430   0.934   0.731  1.1133 -0.6046  1.5899
  470SOL    HW2 1543   2.505   0.809   0.690 -0.3826 -1.2239  0.6983
  471SOL     OW 1544   1.219   3.457   3.697  0.3839 -0.3849 -0.1005
  471SOL    HW1 1545   1.262   3.538   3.723  1.8152 -0.4966 -1.9130
  471SOL    HW2 1546   1.129   3.467   3.729  1.3359  0.4379  2.6068
  472SOL     OW 1547   3.390   0.579   0.439 -0.4044 -0.3147  0.4681
  472SOL    HW1 1548   3.432   0.572   0.353 -2.7552 -0.8405 -0.7489
  472SOL    HW2 1549   3.439   0.647   0.485 -0.6939  1.9913 -2.3461
  473SOL     OW 1550   0.250   0.898   1.716 -0.5003 -0.3918 -0.6832
  473SOL    HW1 1551   0.292   0.929   1.636 -3.1893  0.9463 -1.6978
  473SOL    HW2 1552   0.315   0.840   1.756  1.0526 -0.8923 -3.6534
  474SOL     OW 1553   2.451   0.980   2.905 -0.1983  0.3360  0.1310
  474SOL    HW1 1554   2.526   0.938   2.863  0.8385  1.8630  0.3478
  474SOL    HW2 1555   2.443   0.937   2.990  0.7644  0.5021  0.3117
  475SOL     OW 1556   0.082   1.555   2.409  0.3191 -0.1783 -0.3682
  475SOL    HW1 1557   0.150   1.503   2.452 -0.9851 -2.1104 -0.4989
  475SOL    HW2 1558   0.126   1.597   2.336  1.6572 -0.2887  0.3566
  476SOL     OW 1559   1.609   0.093   2.850  0.6153 -0.4495  0.7668
  476SOL    HW1 1560   1.662   0.043   2.788 -1.1994 -0.7470 -0.6097
  476SOL    HW2 1561   1.546   0.030   2.885 -2.0426  0.8016 -1.3591
  477SOL     OW 1562   1.431   1.075   0.176 -0.1030  0.2524  0.2689
  477SOL    HW1 1563   1.468   1.162   0.164  0.6555  0.1717  1.8095
  477SOL    HW2 1564   1.466   1.045   0.259 -1.7492 -0.8209  0.6284
  478SOL     OW 1565   2.273   2.456   1.302  0.4091 -0.0731  0.0073
  478SOL    HW1 1566   2.296   2.508   1.379 -0.2641  3.1303 -1.8031
  478SOL    HW2 1567   2.201   2.400   1.333 -0.1347  1.4148  1.6395
  479SOL     OW 1568   1.422   1.350   0.358  0.6293  0.0661 -0.3406
  479SOL    HW1 1569   1.416   1.283   0.426  3.2979  1.4500  1.4671
  479SOL    HW2 1570   1.482   1.314   0.293  0.6720  0.0020 -0.2653
  480SOL     OW 1571   3.354   2.585   0.788  0.2581  0.5948 -0.5578
  480SOL    HW1 1572   3.281   2.646   0.784 -1.1163 -0.8508  0.6660
  480SOL    HW2 1573   3.329   2.513   0.730 -0.0968 -0.6372  1.0242
  481SOL     OW 1574   0.862   0.495   2.290 -0.5082 -0.4135  0.2711
  481SOL    HW1 1575   0.937   0.462   2.241 -1.5868 -0.7372 -1.2192
  481SOL    HW2 1576   0.831   0.419   2.340  0.8256  0.0134  1.8350
  482SOL     OW 1577   1.950   1.958   0.397 -0.5414 -0.3415 -0.4275
  482SOL    HW1 1578   1.976   2.039   0.353 -1.9502  0.6712  0.5282
  482SOL    HW2 1579   1.867   1.934   0.355 -1.6857  0.4004  1.2637
  483SOL     OW 1580   0.793   1.052   2.406  0.2769  0.1721  0.0566
  483SOL    HW1 1581   0.864   1.026   2.348  1.5886 -1.0771  2.1008
  483SOL    HW2 1582   0.720   0.994   2.383  0.7591 -0.2768 -0.3697
  484SOL     OW 1583   0.112   2.049   1.532  0.3463  0.2038 -0.8373
  484SOL    HW1 1584   0.116   2.091   1.618 -0.7700  0.9316 -1.1248
  484SOL    HW2 1585   0.075   1.962   1.550  2.0447 -0.4434 -0.3297
  485SOL     OW 1586   2.078   2.133   1.183 -0.7753  0.5676  0.6579
  485SOL    HW1 1587   2.116   2.221   1.190 -1.3150  0.7908  0.7924
  485SOL    HW2 1588   2.041   2.116   1.269 -0.1442 -0.0413  0.8159
  486SOL     OW 1589   2.623   2.746   2.891  0.4303 -0.1728  0.2194
  486SOL    HW1 1590   2.711   2.744   2.854  0.5125  1.9635  0.1753
  486SOL    HW2 1591   2.565   2.735   2.817  0.6228  2.4656 -0.3874
  487SOL     OW 1592   3.410   1.581   0.489 -0.5377 -0.0195 -0.4430
  487SOL    HW1 1593   3.375   1.508   0.437 -1.5333 -0.0256  0.2065
  487SOL    HW2 1594   3.335   1.615   0.537  0.4104 -0.2956  1.3398
  488SOL     OW 1595   2.271   3.562   3.606  0.2684 -0.2078  0.2917
  488SOL    HW1 1596   2.181   3.538   3.629  0.5473 -1.0912  0.4815
  488SOL    HW2 1597   2.305   3.605   3.684 -0.6197  1.9890 -0.4496
  489SOL     OW 1598   2.325   2.268   0.960 -0.3349 -0.3992 -0.3854
  489SOL    HW1 1599   2.317   2.363   0.965 -0.0907 -0.2598 -2.0842
  489SOL    HW2 1600   2.310   2.238   1.050  1.7815  1.3881  0.6789
  490SOL     OW 1601   0.956   1.263   0.729  0.7011  0.4003 -0.6123
  490SOL    HW1 1602   1.011   1.316   0.672 -0.0490  1.4839 -0.3729
  490SOL    HW2 1603   0.927   1.324   0.797 -1.3448  0.0920 -1.1268
  491SOL     OW 1604   2.986   1.858   1.591 -0.1910 -0.4221  0.4823
  491SOL    HW1 1605   3.070   1.897   1.568 -1.1107  1.1976 -0.3066
  491SOL    HW2 1606   3.004   1.764   1.599  1.7931 -0.0401  0.9349
  492SOL     OW 1607   0.457   2.681   0.212  0.0239 -0.0403  0.0643
  492SOL    HW1 1608   0.388   2.632   0.256  0.5324  0.9028  2.0324
  492SOL    HW2 1609   0.526   2.616   0.196 -0.3728 -0.5040  0.2247
  493SOL     OW 1610   0.647   1.595   0.226 -0.4042  0.1421 -0.1519
  493SOL    HW1 1611   0.667   1.685   0.202  0.8082 -0.1727 -0.3902
  493SOL    HW2 1612   0.602   1.602   0.311 -1.6170  1.0412 -0.8419
  494SOL     OW 1613   0.379   3.278   3.705 -0.5109  0.2084 -0.1107
  494SOL    HW1 1614   0.457   3.227   3.728 -0.7087 -0.3502 -0.6673
  494SOL    HW2 1615   0.337   3.228   3.636 -0.6116  1.2299 -0.8069
  495SOL     OW 1616   2.375   1.003   1.734 -0.1845  0.3999 -0.2747
  495SOL    HW1 1617   2.337   0.930   1.784 -2.3970  2.1960  0.8727
  495SOL    HW2 1618   2.397   0.966   1.649 -1.8678 -1.4635  0.0400
  496SOL     OW 1619   2.081   2.972   2.702 -0.0693  0.3239 -0.3838
  496SOL    HW1 1620   2.159   3.027   2.698 -0.4219  0.8702 -0.0125
  496SOL    HW2 1621   2.025   3.004   2.631 -0.6625  1.0823  0.3900
  497SOL     OW 1622   0.536   0.229   0.611  0.0685 -0.2069  0.4487
  497SOL    HW1 1623   0.474   0.186   0.552 -0.4067  2.3483 -1.0960
  497SOL    HW2 1624   0.616   0.176   0.606 -0.3803 -0.7712 -1.5699
  498SOL     OW 1625   3.520   3.154   0.785 -0.4132  0.3907 -0.2561
  498SOL    HW1 1626   3.469   3.207   0.846 -0.9670 -0.1260 -0.2548
  498SOL    HW2 1627   3.609   3.186   0.794 -0.1390 -0.7944  2.1040
  499SOL     OW 1628   1.573   0.594   2.848 -0.1942 -0.3460  0.1820
  499SOL    HW1 1629   1.605   0.682   2.827 -1.1788 -0.0685 -0.2553
  499SOL    HW2 1630   1.561   0.552   2.763  3.0039 -1.9984  0.3986
  500SOL     OW 1631   0.314   1.382   2.498  0.0805 -0.7271  0.3650
  500SOL    HW1 1632   0.317   1.352   2.589 -1.1915  0.7263  0.9115
  500SOL    HW2 1633   0.326   1.302   2.447  0.0278 -1.6839  1.7862
  501SOL     OW 1634   0.279   1.710   1.570 -0.7014 -0.1263 -0.0019
  501SOL    HW1 1635   0.205   1.721   1.630 -0.6986  2.7813 -0.4058
  501SOL    HW2 1636   0.241   1.722   1.483  0.0388  0.0402 -0.3082
  502SOL     OW 1637   1.582   2.319   3.622  0.0716  0.4316 -0.1098
  502SOL    HW1 1638   1.506   2.353   3.577  0.0185  0.9137  0.3357
  502SOL    HW2 1639   1.589   2.228   3.594 -0.7462  0.3497 -0.0465
  503SOL     OW 1640   1.579   1.278   2.258  0.6663 -0.1958  0.3644
  503SOL    HW1 1641   1.644   1.307   2.194  0.8327  1.6133  1.2817
  503SOL    HW2 1642   1.575   1.183   2.248  1.1919 -0.0235 -1.8173
  504SOL     OW 1643   1.443   2.910   2.117  0.0952 -0.9234 -0.5729
  504SOL    HW1 1644   1.378   2.841   2.130  1.0126 -1.9227 -1.1393
  504SOL    HW2 1645   1.391   2.990   2.107 -0.9559 -1.3931  0.8177
  505SOL     OW 1646   3.428   1.247   1.059  0.7294  0.4026 -0.0106
  505SOL    HW1 1647   3.417   1.176   0.996 -0.5791  1.6903 -1.3084
  505SOL    HW2 1648   3.339   1.274   1.081  1.1781  0.6786  1.6214
  506SOL     OW 1649   1.969   1.317   3.294 -0.2479  0.1916 -0.4139
  506SOL    HW1 1650   1.996   1.225   3.297  0.7879  0.3974 -2.0689
  506SOL    HW2 1651   1.903   1.325   3.362 -0.8922 -1.9576 -0.7204
  507SOL     OW 1652   3.046   3.087   0.467  0.4361  0.0373  0.2885
  507SOL    HW1 1653   3.059   3.014   0.527  1.4575 -0.4065 -0.4304
  507SOL    HW2 1654   3.070   3.051   0.381 -1.4451  0.5067 -0.4820
  508SOL     OW 1655   2.868   0.225   3.630 -0.5962 -0.1543 -0.3782
  508SOL    HW1 1656   2.836   0.280   3.558 -0.3938 -0.5809 -0.7995
  508SOL    HW2 1657   2.812   0.248   3.704  0.8564  2.2314  0.0940
  509SOL     OW 1658   2.823   0.650   2.727  0.0743  0.1236  0.1910
  509SOL    HW1 1659   2.800   0.657   2.819  2.2951  0.8458  0.7292
  509SOL    HW2 1660   2.918   0.653   2.724  0.1093 -0.6581 -2.0771
  510SOL     OW 1661   3.358   0.134   0.952  0.0733 -0.4780 -0.2710
  510SOL    HW1 1662   3.400   0.132   0.866 -0.1502 -0.6373 -0.3791
  510SOL    HW2 1663   3.305   0.214   0.951  0.8789  0.0759  0.1138
  511SOL     OW 1664   0.245   2.373   3.548 -0.5024  0.0682 -0.0650
  511SOL    HW1 1665   0.165   2.335   3.513  0.7089 -1.4918 -1.2952
  511SOL    HW2 1666   0.216   2.447   3.601 -2.6922 -0.0603 -1.0084
  512SOL     OW 1667   1.119   2.238   3.730 -0.2352 -0.3591  0.4041
  512SOL    HW1 1668   1.203   2.285   3.734 -0.4915  0.1638 -0.1802
  512SOL    HW2 1669   1.067   2.288   3.667 -1.0681 -0.5488  0.9249
  513SOL     OW 1670   2.222   1.274   0.075  0.5442  0.6082  0.3738
  513SOL    HW1 1671   2.214   1.350   0.133  0.7356 -0.1601  1.4368
  513SOL    HW2 1672   2.303   1.231   0.103 -0.4470 -0.9488  0.9553
  514SOL     OW 1673   0.373   2.126   2.298  0.3443 -0.3141 -0.0328
  514SOL    HW1 1674   0.320   2.088   2.227  1.3288 -0.1227 -0.8973
  514SOL    HW2 1675   0.347   2.076   2.376 -2.2990  0.8612 -0.0547
  515SOL     OW 1676   2.486   1.980   0.270 -0.2554 -0.2757  0.0762
  515SOL    HW1 1677   2.451   2.021   0.349  0.1939  0.9131 -0.3335
  515SOL    HW2 1678   2.523   2.052   0.220  1.4313 -1.2998 -0.2168
  516SOL     OW 1679   0.587   2.885   1.340 -0.0952 -0.2848  0.3268
  516SOL    HW1 1680   0.559   2.903   1.430  0.4567  1.8138  0.1295
  516SOL    HW2 1681   0.548   2.955   1.288  1.6279 -0.0038 -0.6668
  517SOL     OW 1682   0.329   1.046   2.355  0.3113  0.4109  0.1144
  517SOL    HW1 1683   0.419   1.033   2.383  0.0727 -0.8286  0.3302
  517SOL    HW2 1684   0.310   0.972   2.298 -1.4438 -0.9119  2.2569
  518SOL     OW 1685   2.381   0.335   1.773 -0.3570 -0.5637  0.8350
  518SOL    HW1 1686   2.296   0.369   1.800 -0.1020  0.3525  0.5243
  518SOL    HW2 1687   2.437   0.413   1.764  0.5314 -1.1498  1.0861
  519SOL     OW 1688   2.414   0.348   0.891 -0.0432  0.2092 -0.4874
  519SOL    HW1 1689   2.483   0.304   0.940 -1.9113 -1.3452  0.9143
  519SOL    HW2 1690   2.419   0.311   0.803  0.4334 -0.4475 -0.1921
  520SOL     OW 1691   0.673   3.268   1.856  0.0204 -0.8832  0.3244
  520SOL    HW1 1692   0.684   3.254   1.762 -1.6936 -0.0679 -0.0369
  520SOL    HW2 1693   0.615   3.197   1.884 -2.7028  1.0241 -0.0765
  521SOL     OW 1694   0.958   2.903   2.661  0.2523 -0.5460 -0.1791
  521SOL    HW1 1695   1.016   2.827   2.667  3.0990  1.5118  1.3106
  521SOL    HW2 1696   0.960   2.927   2.569  2.3355 -0.2351 -0.1073
  522SOL     OW 1697   2.095   1.320   2.606  0.2941 -0.1309  0.4933
  522SOL    HW1 1698   2.011   1.356   2.634  1.4176  1.5871  1.8714
  522SOL    HW2 1699   2.132   1.282   2.686  0.1150 -2.4687 -0.4677
  523SOL     OW 1700   1.703   0.530   0.482 -1.0656  0.3274 -0.3209
  523SOL    HW1 1701   1.754   0.592   0.430 -0.2927 -1.0156 -1.2149
  523SOL    HW2 1702   1.764   0.498   0.548 -0.9308 -0.7897 -0.9719
  524SOL     OW 1703   1.708   2.775   0.576 -0.4095  0.6361  0.4067
  524SOL    HW1 1704   1.701   2.796   0.669 -1.4146 -0.0518  0.4875
  524SOL    HW2 1705   1.783   2.716   0.571 -2.8538 -2.8383  1.4316
  525SOL     OW 1706   0.708   2.992   0.737 -0.0793  0.6439  0.2069
  525SOL    HW1 1707   0.728   2.911   0.783 -2.0441  1.1975  2.2310
  525SOL    HW2 1708   0.777   3.053   0.764  1.9019 -0.4493 -1.9863
  526SOL     OW 1709   0.854   3.389   1.324  0.1896 -0.1523 -0.3642
  526SOL    HW1 1710   0.819   3.447   1.391  1.0999 -1.5391  1.3855
  526SOL    HW2 1711   0.948   3.408   1.321  0.1408  0.0165 -1.4062
  527SOL     OW 1712   1.515   2.648   1.335  0.0297 -0.4160  0.2284
  527SOL    HW1 1713   1.428   2.609   1.345 -0.1919 -0.2159 -0.8069
  527SOL    HW2 1714   1.551   2.650   1.424 -0.1337 -2.5437  0.3883
  528SOL     OW 1715   1.026   0.582   3.064 -0.3883  0.1482  0.4613
  528SOL    HW1 1716   0.945   0.580   3.115 -2.7462  2.4084 -2.7625
  528SOL    HW2 1717   1.014   0.514   2.997  0.0411  0.9200 -0.4275
  529SOL     OW 1718   0.631   0.918   1.521 -0.0004  0.4170 -0.0179
  529SOL    HW1 1719   0.712   0.868   1.515  0.9722  1.9965 -0.5628
  529SOL    HW2 1720   0.638   0.966   1.603  0.1697  1.4542 -0.6256
  530SOL     OW 1721   2.803   3.726   1.681 -0.0141 -0.2986  0.1245
  530SOL    HW1 1722   2.714   3.713   1.713 -0.5111 -0.8699 -1.4207
  530SOL    HW2 1723   2.853   3.749   1.760 -1.0595 -2.1433  1.4141
  531SOL     OW 1724   2.928   2.431   1.028 -0.2487 -0.8346  0.1268
  531SOL    HW1 1725   2.946   2.507   1.084 -0.8760  0.0545 -0.8542
  531SOL    HW2 1726   3.009   2.379   1.033  1.2674  1.2130 -1.2508
  532SOL     OW 1727   0.363   0.671   2.023 -0.1972  0.2438 -0.3910
  532SOL    HW1 1728   0.396   0.581   2.031  3.5875  1.4756 -0.0339
  532SOL    HW2 1729   0.416   0.709   1.953 -0.6932  2.5648  0.4317
  533SOL     OW 1730   3.550   2.312   0.163  0.1130  0.5745  0.3605
  533SOL    HW1 1731   3.611   2.279   0.097  0.5550  0.9079  0.5936
  533SOL    HW2 1732   3.464   2.306   0.122  0.1831 -0.7971  0.3780
  534SOL     OW 1733   3.541   1.175   0.643 -0.3215 -0.3445 -0.2428
  534SOL    HW1 1734   3.547   1.233   0.720 -0.8470 -2.3865  1.4323
  534SOL    HW2 1735   3.625   1.185   0.599 -1.2183  3.4569 -1.4641
  535SOL     OW 1736   2.402   0.860   3.125  0.4955 -0.6828 -0.2315
  535SOL    HW1 1737   2.312   0.855   3.156  0.2924 -1.4561 -0.9376
  535SOL    HW2 1738   2.455   0.842   3.203  0.0957  1.1240  0.4989
  536SOL     OW 1739   1.498   3.030   2.998 -0.0863  0.4733 -0.0453
  536SOL    HW1 1740   1.410   3.046   3.033 -0.1553  3.2880 -1.2598
  536SOL    HW2 1741   1.483   2.986   2.914 -0.2458 -0.3249  0.3960
  537SOL     OW 1742   0.641   0.850   2.925  0.3333  0.0832 -0.4292
  537SOL    HW1 1743   0.556   0.827   2.962 -0.2798  1.5754 -0.8461
  537SOL    HW2 1744   0.697   0.866   3.002 -0.8964  3.0392 -0.0371
  538SOL     OW 1745   1.450   1.884   1.683 -0.1073  0.0167 -0.3243
  538SOL    HW1 1746   1.502   1.843   1.614 -2.3175 -1.7875 -1.0552
  538SOL    HW2 1747   1.418   1.965   1.644 -0.0380 -0.2043 -0.8479
  539SOL     OW 1748   3.633   1.094   1.212  0.3581 -0.5280 -0.2422
  539SOL    HW1 1749   3.708   1.123   1.263 -0.3750 -1.3765  1.4016
  539SOL    HW2 1750   3.602   1.172   1.167  1.1846  0.1955  0.4277
  540SOL     OW 1751   0.793   3.177   2.364  0.3716 -0.3719  0.4341
  540SOL    HW1 1752   0.750   3.230   2.297  0.4905  1.7827  1.9576
  540SOL    HW2 1753   0.722   3.142   2.417  0.3359 -0.7486  0.1392
  541SOL     OW 1754   3.236   1.729   0.992  0.3187  0.1400 -0.2951
  541SOL    HW1 1755   3.180   1.694   1.061 -1.3165 -0.3731 -1.8132
  541SOL    HW2 1756   3.314   1.674   0.994 -0.0085 -0.3163  0.6380
  542SOL     OW 1757   1.883   1.425   2.709  0.0131 -0.1384  0.1929
  542SOL    HW1 1758   1.844   1.379   2.783 -0.7313 -0.0733 -0.1504
  542SOL    HW2 1759   1.842   1.512   2.711 -0.1433 -0.1927 -0.3881
  543SOL     OW 1760   0.026   1.421   0.837 -0.0097  0.0179  0.4975
  543SOL    HW1 1761  -0.051   1.442   0.785  0.8162 -1.1737 -1.3116
  543SOL    HW2 1762   0.094   1.478   0.803  1.0277 -2.0552 -1.1784
  544SOL     OW 1763   1.014   1.305  -0.015 -0.0525  0.3137 -0.1939
  544SOL    HW1 1764   1.043   1.378   0.039 -1.2909 -0.2986  1.3898
  544SOL    HW2 1765   1.050   1.227   0.028  1.5666 -0.0419 -2.0675
  545SOL     OW 1766   3.532   3.015   0.446 -0.2488  0.9611  0.2900
  545SOL    HW1 1767   3.537   2.950   0.375 -1.6932  0.9760  0.1376
  545SOL    HW2 1768   3.487   3.089   0.406  0.0307  1.4565  0.8948
  546SOL     OW 1769   1.302   3.033   0.261  0.0332  0.1170 -0.2530
  546SOL    HW1 1770   1.331   2.990   0.342  1.7190  1.1673 -0.2522
  546SOL    HW2 1771   1.220   2.988   0.238 -0.1959 -0.5645  1.7223
  547SOL     OW 1772   2.555   1.495   0.225 -0.0665 -0.5775  0.2955
  547SOL    HW1 1773   2.625   1.560   0.215  0.3343 -0.8094  1.4581
  547SOL    HW2 1774   2.595   1.425   0.276 -1.2071 -0.6217  1.1551
  548SOL     OW 1775   0.029   1.410   3.362  0.8102 -0.0821  0.0047
  548SOL    HW1 1776   0.001   1.463   3.287 -1.8691 -1.5895 -0.1934
  548SOL    HW2 1777   0.034   1.472   3.435 -0.7283  0.7305 -0.5391
  549SOL     OW 1778   2.949   3.678   3.020  0.3211 -0.5826  0.0662
  549SOL    HW1 1779   2.859   3.685   3.052 -0.5758 -1.5307 -1.9881
  549SOL    HW2 1780   3.000   3.739   3.073 -1.4462 -0.3738  1.5930
  550SOL     OW 1781   2.493   0.087   3.613 -0.2025  0.5165  0.1419
  550SOL    HW1 1782   2.467   0.026   3.682  0.7103  0.5309  0.5124
  550SOL    HW2 1783   2.483   0.173   3.653  1.3426  0.4942  0.6538
  551SOL     OW 1784   1.758   1.374   3.465 -0.2182 -0.2127 -0.5336
  551SOL    HW1 1785   1.808   1.408   3.540  0.9784 -0.6911 -1.0859
  551SOL    HW2 1786   1.692   1.317   3.504  1.2930 -1.5932  0.1269
  552SOL     OW 1787   2.317   3.095   0.133  0.0945 -0.1926 -0.6768
  552SOL    HW1 1788   2.397   3.093   0.185  0.4402  0.3190 -1.1779
  552SOL    HW2 1789   2.312   3.185   0.100 -1.6677  0.3478  0.8553
  553SOL     OW 1790   1.577   2.107   3.227 -0.0612  0.0659  0.1227
  553SOL    HW1 1791   1.564   2.016   3.255 -0.1895  0.4452  1.3644
  553SOL    HW2 1792   1.555   2.107   3.134  3.0971 -1.8880 -0.8168
  554SOL     OW 1793   0.462   1.280   0.274 -0.2736  0.4895  0.3746
  554SOL    HW1 1794   0.523   1.321   0.212  1.4827 -0.2435  1.5443
  554SOL    HW2 1795   0.457   1.189   0.246  0.5351  0.1544  1.2998
  555SOL     OW 1796   3.370   3.020   3.311 -0.1083 -0.5514  0.4394
  555SOL    HW1 1797   3.433   2.950   3.293 -0.2157 -1.3585  2.7634
  555SOL    HW2 1798   3.288   2.974   3.327 -1.0483  0.4090 -1.3710
  556SOL     OW 1799   2.625   0.049   1.405  0.5311 -0.0344  0.0986
  556SOL    HW1 1800   2.687   0.006   1.463 -0.0842 -1.6091 -0.3446
  556SOL    HW2 1801   2.572  -0.023   1.370 -4.3720  1.3068  3.5980
  557SOL     OW 1802   2.783   2.884   2.649 -0.4185 -0.0732 -0.1223
  557SOL    HW1 1803   2.765   2.861   2.558  0.0718 -0.6622 -0.0729
  557SOL    HW2 1804   2.871   2.921   2.647 -0.2034 -0.5604  0.1863
  558SOL     OW 1805   0.726   1.338   0.079 -0.7413 -0.1224  0.2517
  558SOL    HW1 1806   0.693   1.417   0.122 -2.4336  0.5325 -2.0716
  558SOL    HW2 1807   0.813   1.363   0.047 -0.8545  0.4758  0.3908
  559SOL     OW 1808   2.516   1.257   1.380  0.2729  0.5255  0.3699
  559SOL    HW1 1809   2.422   1.269   1.390  0.5121  2.0851  0.9720
  559SOL    HW2 1810   2.545   1.219   1.463  0.1181 -0.4404 -0.0051
  560SOL     OW 1811   1.552   2.374   3.113  0.1257  0.0499 -0.2681
  560SOL    HW1 1812   1.462   2.397   3.137  1.6210  2.7645  3.6370
  560SOL    HW2 1813   1.588   2.333   3.192  2.8184  0.6889 -1.0798
  561SOL     OW 1814   1.897   2.593   3.039 -0.5240 -0.5449  0.5615
  561SOL    HW1 1815   1.976   2.543   3.020 -1.1577 -1.0621 -0.8802
  561SOL    HW2 1816   1.861   2.552   3.118 -0.4698 -1.6910  0.0086
  562SOL     OW 1817   2.731   1.315   0.336  0.2587 -0.4634 -0.7802
  562SOL    HW1 1818   2.796   1.343   0.401 -1.2716 -0.0157  0.6425
  562SOL    HW2 1819   2.766   1.234   0.300  1.8806  0.0868 -0.5078
  563SOL     OW 1820   1.376   3.192   2.432 -0.2899  0.3359 -0.3841
  563SOL    HW1 1821   1.385   3.100   2.455 -1.1984  0.6370  1.3130
  563SOL    HW2 1822   1.466   3.224   2.424  0.0293 -0.6438 -0.8496
  564SOL     OW 1823   2.840   1.414   2.634 -0.2379 -0.0422  0.0997
  564SOL    HW1 1824   2.932   1.419   2.605 -0.1423 -1.3540  0.1254
  564SOL    HW2 1825   2.791   1.457   2.564  0.4748  1.6776  0.5999
  565SOL     OW 1826   2.694   1.269   0.823 -0.3537  0.1458  0.2497
  565SOL    HW1 1827   2.693   1.353   0.778  0.1041  0.0510  0.0634
  565SOL    HW2 1828   2.627   1.277   0.891 -1.8012 -0.0881 -1.1080
  566SOL     OW 1829   3.466   2.673   0.391 -0.5492 -0.5189 -0.1273
  566SOL    HW1 1830   3.471   2.589   0.436 -2.0670 -0.4804  0.1393
  566SOL    HW2 1831   3.404   2.725   0.442  0.6958  0.9524 -0.0153
  567SOL     OW 1832   0.126   0.207   2.709 -0.0073  0.2442 -0.0539
  567SOL    HW1 1833   0.036   0.223   2.739  0.2475  0.8518  0.4204
  567SOL    HW2 1834   0.179   0.215   2.788  0.2673 -2.2478  0.0987
  568SOL     OW 1835   1.150   1.975   0.028 -0.2768 -0.1216  0.1068
  568SOL    HW1 1836   1.163   2.060  -0.012  1.9608 -0.3507  0.2360
  568SOL    HW2 1837   1.177   1.986   0.119 -0.0133 -0.9558  0.1410
  569SOL     OW 1838   0.939   1.809   1.750 -0.4947  0.2899 -0.4436
  569SOL    HW1 1839   0.986   1.891   1.735  1.3199 -1.0540 -2.8060
  569SOL    HW2 1840   0.975   1.775   1.832  1.1731  0.3629 -1.0934
  570SOL     OW 1841   3.548   0.350   2.200  0.4829 -0.3478  0.5971
  570SOL    HW1 1842   3.509   0.263   2.189 -0.4648  0.2457 -1.1035
  570SOL    HW2 1843   3.518   0.399   2.124  1.5521  1.2821  1.1841
  571SOL     OW 1844   1.319   2.767   0.364  0.8266 -0.0632  0.1212
  571SOL    HW1 1845   1.290   2.707   0.295  1.3484 -0.4256  0.2067
  571SOL    HW2 1846   1.415   2.765   0.359  0.8541  0.7586  0.1366
  572SOL     OW 1847   0.756   0.733   1.943  0.7463  0.7653 -1.1028
  572SOL    HW1 1848   0.767   0.641   1.917  0.7698  0.6623 -0.7411
  572SOL    HW2 1849   0.720   0.728   2.032  0.1395  1.1066 -1.3230
  573SOL     OW 1850   1.149   2.326   0.335 -0.5433  0.9090 -0.3023
  573SOL    HW1 1851   1.242   2.316   0.315 -0.9654  0.3223 -2.1460
  573SOL    HW2 1852   1.146   2.335   0.430  1.3001 -0.0926 -0.1088
  574SOL     OW 1853   0.019   0.505   0.380  0.0912 -0.0464 -0.1501
  574SOL    HW1 1854   0.106   0.465   0.381  0.6275  1.0816  0.3949
  574SOL    HW2 1855  -0.017   0.488   0.467  0.2525  0.5050  0.0255
  575SOL     OW 1856   3.493   2.744   3.033 -0.0245  0.4750  0.7058
  575SOL    HW1 1857   3.403   2.740   3.065 -0.0617  1.4783  0.7499
  575SOL    HW2 1858   3.484   2.761   2.939  0.1104  2.1901  0.9749
  576SOL     OW 1859   2.721   1.608   3.455  0.0077  0.3424  0.4478
  576SOL    HW1 1860   2.702   1.544   3.524 -1.0330 -1.1932 -1.1872
  576SOL    HW2 1861   2.665   1.582   3.382 -0.5041  3.1826 -0.2971
  577SOL     OW 1862   2.991   0.565   2.993 -0.4486  0.1783  0.1061
  577SOL    HW1 1863   2.901   0.598   2.989 -1.4822 -2.4856 -1.0116
  577SOL    HW2 1864   3.028   0.606   3.071 -2.5257  1.5453  0.4682
  578SOL     OW 1865   2.988   0.579   1.921  0.2072 -0.7012  0.1512
  578SOL    HW1 1866   3.014   0.655   1.974  1.0641 -2.4541  2.3869
  578SOL    HW2 1867   3.055   0.573   1.854  1.1828 -0.5335  1.0821
  579SOL     OW 1868   0.695   3.429   0.414  0.4042 -0.0345  0.8209
  579SOL    HW1 1869   0.629   3.446   0.347  1.2696  0.6992  0.1245
  579SOL    HW2 1870   0.646   3.392   0.488 -0.7303  0.2228  0.2170
  580SOL     OW 1871   1.367   2.016   2.890 -0.2075  0.9260  0.5588
  580SOL    HW1 1872   1.461   2.025   2.903 -0.4233  1.8069  1.7123
  580SOL    HW2 1873   1.336   1.970   2.968 -0.7486  0.8161  0.2808
  581SOL     OW 1874   1.439   2.054   0.057 -0.4486  0.4943  0.0015
  581SOL    HW1 1875   1.524   2.041   0.017 -1.4143  1.3436 -2.5079
  581SOL    HW2 1876   1.441   2.000   0.136  2.0634 -0.1959 -0.4567
  582SOL     OW 1877   2.932   2.833   1.529  0.6602 -0.0010 -0.1889
  582SOL    HW1 1878   2.930   2.913   1.476 -2.5810  0.2797  0.1776
  582SOL    HW2 1879   2.924   2.762   1.466  0.1733  0.1509 -0.3015
  583SOL     OW 1880   0.273   1.751   2.933 -0.2111  0.4886  0.1808
  583SOL    HW1 1881   0.180   1.731   2.942 -0.1396  0.1532  0.1562
  583SOL    HW2 1882   0.274   1.833   2.883 -0.4649 -0.1501 -0.9159
  584SOL     OW 1883   2.781   3.052   0.877  0.1459 -0.4958  0.5268
  584SOL    HW1 1884   2.792   3.095   0.792  0.4826 -0.5569  0.5383
  584SOL    HW2 1885   2.803   3.119   0.941 -2.1864  0.2313  0.6599
  585SOL     OW 1886   1.794   3.050   2.055  0.2842 -0.1967 -0.2155
  585SOL    HW1 1887   1.723   3.110   2.080 -0.3788 -0.6314 -1.0202
  585SOL    HW2 1888   1.861   3.064   2.122 -1.0539 -0.6638  1.2733
  586SOL     OW 1889   1.968   2.362   1.369  0.7658 -0.7865  0.8386
  586SOL    HW1 1890   1.952   2.275   1.404 -1.0681 -1.1093 -0.6893
  586SOL    HW2 1891   1.968   2.419   1.446 -1.0183 -1.7453  1.5946
  587SOL     OW 1892   2.780   2.043   3.582 -0.4882 -0.2553 -0.7312
  587SOL    HW1 1893   2.834   2.095   3.641  0.0833 -0.8741 -0.6975
  587SOL    HW2 1894   2.786   1.953   3.615 -1.1768 -0.4078 -0.9940
  588SOL     OW 1895   2.780   3.365   0.578  0.0020 -0.2649  0.4563
  588SOL    HW1 1896   2.841   3.429   0.541 -0.8779  0.5975  0.4533
  588SOL    HW2 1897   2.728   3.336   0.503 -1.7639  1.4624  0.9343
  589SOL     OW 1898   0.151   2.564  -0.022 -0.2017  0.6192  0.0729
  589SOL    HW1 1899   0.187   2.561   0.067  1.3772 -0.3825 -0.5480
  589SOL    HW2 1900   0.099   2.644  -0.025 -0.0243  0.8319  1.7906
  590SOL     OW 1901   1.611   1.324   0.174 -0.2932  0.1881  0.3747
  590SOL    HW1 1902   1.600   1.413   0.138  0.5145 -0.5925 -1.9978
  590SOL    HW2 1903   1.697   1.327   0.217  0.7287  0.0764 -1.5288
  591SOL     OW 1904   1.690   1.393   1.989  0.0471  0.3503 -0.2692
  591SOL    HW1 1905   1.658   1.455   1.923  0.4319 -0.9774 -1.7596
  591SOL    HW2 1906   1.783   1.415   1.999 -0.0390  0.6307 -0.0649
  592SOL     OW 1907   2.146   3.679   0.555 -0.6984 -0.3750  0.3511
  592SOL    HW1 1908   2.189   3.745   0.611 -0.9643  0.3594 -0.2899
  592SOL    HW2 1909   2.053   3.695   0.567 -0.7561  0.2925 -0.8723
  593SOL     OW 1910   1.738   0.250   1.536 -0.3557  0.6437 -0.0894
  593SOL    HW1 1911   1.797   0.325   1.546 -0.9184  0.9639  1.0417
  593SOL    HW2 1912   1.741   0.206   1.621 -1.3661  0.3995 -0.1688
  594SOL     OW 1913   3.195   2.465   3.261  0.0686  0.0678 -0.1054
  594SOL    HW1 1914   3.202   2.538   3.199 -0.5806 -0.0582 -0.3358
  594SOL    HW2 1915   3.270   2.409   3.241 -0.5307 -0.3519 -1.2921
  595SOL     OW 1916   2.202   1.225   1.015 -0.3377 -0.0929  0.6658
  595SOL    HW1 1917   2.190   1.314   0.983 -1.4320  0.4073  2.3389
  595SOL    HW2 1918   2.123   1.179   0.988 -0.8461  0.0912  1.7749
  596SOL     OW 1919   1.433   3.634   3.317 -0.0660 -0.3129 -0.4465
  596SOL    HW1 1920   1.382   3.554   3.333  0.8043 -0.6523  0.7517
  596SOL    HW2 1921   1.436   3.678   3.402  0.4358  0.4257 -0.8370
  597SOL     OW 1922   2.951   2.183   0.425  0.0199  0.0541 -0.0131
  597SOL    HW1 1923   2.918   2.126   0.494 -0.1097 -0.4943 -0.5107
  597SOL    HW2 1924   3.046   2.170   0.427  0.1151  0.8008  0.7055
  598SOL     OW 1925   0.234   0.665   1.225 -0.5135  0.2645 -0.1139
  598SOL    HW1 1926   0.248   0.650   1.318 -1.4533 -1.5639 -0.2209
  598SOL    HW2 1927   0.177   0.741   1.221  0.5975  1.1818  0.7189
  599SOL     OW 1928   0.083   2.171   2.723  0.0902  0.0761  0.6284
  599SOL    HW1 1929   0.178   2.185   2.725  0.2162 -0.7989  2.0559
  599SOL    HW2 1930   0.046   2.253   2.756  0.3480  0.2885  0.4035
  600SOL     OW 1931   1.562   3.691   1.206  0.1134  0.0236  0.1442
  600SOL    HW1 1932   1.545   3.786   1.203 -0.0881 -0.0363 -0.7698
  600SOL    HW2 1933   1.523   3.663   1.288 -1.5687  0.4021 -0.4938
  601SOL     OW 1934   0.834   2.629   3.479  0.3142  0.1967 -0.1464
  601SOL    HW1 1935   0.740   2.613   3.474  0.4050 -0.5151  0.3908
  601SOL    HW2 1936   0.860   2.649   3.388 -0.0704 -1.1503 -0.5659
  602SOL     OW 1937   1.910   3.095   2.519  0.4816 -0.0613 -0.4093
  602SOL    HW1 1938   1.941   3.181   2.545  0.5433  0.2117 -1.3510
  602SOL    HW2 1939   1.822   3.089   2.555  0.9217 -0.0909  0.6827
  603SOL     OW 1940   2.097   0.706   2.642  0.1588  0.2461 -0.0151
  603SOL    HW1 1941   2.180   0.731   2.682 -0.3487 -1.0621  1.9807
  603SOL    HW2 1942   2.030   0.730   2.707 -0.6068 -2.9548  0.5756
  604SOL     OW 1943   3.202   0.382   1.527  0.2723 -0.3734 -0.1194
  604SOL    HW1 1944   3.107   0.390   1.528  0.2899  0.1882 -1.2820
  604SOL    HW2 1945   3.220   0.303   1.578 -0.8210 -0.5776 -0.0301
  605SOL     OW 1946   2.677   0.998   0.820 -0.1202 -0.2012 -0.0818
  605SOL    HW1 1947   2.696   1.001   0.913 -0.4442  0.9454 -0.0345
  605SOL    HW2 1948   2.653   1.088   0.797 -0.7129 -0.6001 -1.1231
  606SOL     OW 1949   2.581   1.101   3.429 -0.5171 -0.0068 -0.3128
  606SOL    HW1 1950   2.557   1.193   3.444 -2.5897 -0.3986 -0.8583
  606SOL    HW2 1951   2.526   1.052   3.491  2.6226 -0.8138  2.0677
  607SOL     OW 1952   3.153   0.049   1.144 -0.1183 -0.1134  0.0341
  607SOL    HW1 1953   3.113   0.122   1.190  1.3557  1.2542 -0.7579
  607SOL    HW2 1954   3.224   0.088   1.094 -0.6288 -1.7606 -2.1396
  608SOL     OW 1955   1.064   2.485   3.007  0.2068 -0.5463 -0.1642
  608SOL    HW1 1956   0.972   2.457   3.004  0.5603 -1.7106 -2.9531
  608SOL    HW2 1957   1.112   2.411   2.969  2.0307  0.9398 -0.8755
  609SOL     OW 1958   1.387   2.216   1.883 -0.0857 -0.2419  0.3087
  609SOL    HW1 1959   1.481   2.217   1.863 -0.2425 -0.4970 -0.4704
  609SOL    HW2 1960   1.370   2.126   1.909 -0.5664 -0.8480 -1.8909
  610SOL     OW 1961   0.665   3.407   0.087  0.4584 -0.4320  0.3205
  610SOL    HW1 1962   0.744   3.439   0.130  1.7888 -2.2212 -0.6404
  610SOL    HW2 1963   0.663   3.313   0.106 -2.0511 -0.2706  1.1965
  611SOL     OW 1964   1.193   2.041   3.337 -0.4224 -0.4263  0.5664
  611SOL    HW1 1965   1.221   1.977   3.272  0.3945  1.6220 -1.1891
  611SOL    HW2 1966   1.268   2.052   3.394  0.3431  0.7116 -0.6075
  612SOL     OW 1967   1.411   2.254   3.379  0.5552  1.4190  0.2759
  612SOL    HW1 1968   1.359   2.317   3.329  0.5479  0.9945 -0.2666
  612SOL    HW2 1969   1.461   2.206   3.312  0.5114  0.8088  0.6703
  613SOL     OW 1970   2.661   3.707   3.048 -0.0198  0.6153  0.6311
  613SOL    HW1 1971   2.569   3.693   3.027  0.2880  0.5342 -0.7811
  613SOL    HW2 1972   2.680   3.795   3.014  0.6409  0.2705  0.0948
  614SOL     OW 1973   2.110   0.810   0.936 -0.1395  0.2474 -0.1598
  614SOL    HW1 1974   2.132   0.885   0.881 -1.6436  0.2499 -0.8127
  614SOL    HW2 1975   2.160   0.738   0.901 -0.4613  0.4375 -1.0279
  615SOL     OW 1976   3.065   0.378   2.137  0.7266  0.9555 -0.6308
  615SOL    HW1 1977   3.124   0.314   2.175  1.2288  1.4977 -0.4779
  615SOL    HW2 1978   3.097   0.462   2.169 -0.4801  1.2287 -0.0755
  616SOL     OW 1979   2.095   3.379   2.178 -0.0095  0.4553  0.1483
  616SOL    HW1 1980   2.018   3.385   2.122  0.1075  1.3563  0.0688
  616SOL    HW2 1981   2.157   3.442   2.142  0.5409  0.1699  0.5669
  617SOL     OW 1982   0.124   0.902   0.760 -0.1158 -0.3634 -0.1451
  617SOL    HW1 1983   0.154   0.937   0.676 -1.4664 -1.2082 -1.0145
  617SOL    HW2 1984   0.109   0.980   0.814  0.9136  0.1838 -0.6264
  618SOL     OW 1985   0.749   3.518   1.518 -0.1522 -0.0205  0.5791
  618SOL    HW1 1986   0.788   3.605   1.516  1.4042 -0.6958 -0.8917
  618SOL    HW2 1987   0.801   3.470   1.584  0.9836 -0.6493 -0.7176
  619SOL     OW 1988   0.769   2.577   2.868  0.1893  0.2588  0.4463
  619SOL    HW1 1989   0.710   2.644   2.833  1.4952  2.1617  1.7218
  619SOL    HW2 1990   0.829   2.560   2.795 -1.8666 -1.8015 -0.9172
  620SOL     OW 1991   1.962   3.368   3.471 -0.0766 -0.5413  0.0464
  620SOL    HW1 1992   1.971   3.416   3.389  0.8011 -2.8514 -1.3020
  620SOL    HW2 1993   1.899   3.298   3.452  0.1287 -1.1145  1.3320
  621SOL     OW 1994   0.193   2.508   0.652  0.2323 -0.2894  0.2454
  621SOL    HW1 1995   0.121   2.570   0.657 -1.8045 -2.6083  2.2157
  621SOL    HW2 1996   0.225   2.500   0.742  0.4160 -2.0526  0.0634
  622SOL     OW 1997   1.761   1.701   2.056  0.8442  0.0989  0.5357
  622SOL    HW1 1998   1.772   1.716   2.150 -0.3161 -2.2696  1.1289
  622SOL    HW2 1999   1.687   1.641   2.050  0.7802  0.3219 -1.9345
  623SOL     OW 2000   1.926   1.983   3.102  0.1470 -0.5944  0.4020
  623SOL    HW1 2001   1.970   2.063   3.132  0.3188  0.1142 -1.5914
  623SOL    HW2 2002   1.997   1.929   3.068 -0.1224 -1.0669  0.5863
  624SOL     OW 2003   0.795   3.561   2.307  0.0512 -0.2928 -0.1637
  624SOL    HW1 2004   0.875   3.528   2.347  0.2841  0.4754  0.0072
  624SOL    HW2 2005   0.763   3.488   2.254  0.8761 -0.5897 -0.2572
  625SOL     OW 2006   2.955   3.574   0.476  0.4616 -0.3746 -0.7340
  625SOL    HW1 2007   2.875   3.624   0.464  0.7341  1.1546  2.5649
  625SOL    HW2 2008   3.012   3.601   0.404 -1.6684 -0.9787 -2.7408
  626SOL     OW 2009   1.259   0.908   3.176 -0.6565  0.1093 -0.6532
  626SOL    HW1 2010   1.245   0.997   3.208 -0.3575  0.8745 -2.5219
  626SOL    HW2 2011   1.313   0.919   3.097 -0.2500 -1.7678 -0.6853
  627SOL     OW 2012   1.586   2.840   0.321 -0.1060 -0.3721  0.0116
  627SOL    HW1 2013   1.654   2.816   0.384 -0.1973  0.6958  0.5394
  627SOL    HW2 2014   1.607   2.930   0.296 -2.1021  0.5166  1.2942
  628SOL     OW 2015   3.706   2.990   1.579  0.7685 -0.4623 -0.1302
  628SOL    HW1 2016   3.615   2.986   1.548  0.2369 -3.5857  1.3896
  628SOL    HW2 2017   3.702   3.044   1.658  0.7523  1.2784 -1.2501
  629SOL     OW 2018   2.576   2.863   0.665  0.2999 -0.3260 -0.4642
  629SOL    HW1 2019   2.665   2.881   0.695  0.5931 -2.9427  0.4830
  629SOL    HW2 2020   2.579   2.773   0.633 -1.5342  0.2727 -2.5632
  630SOL     OW 2021   2.218   0.504   2.920  0.0075  0.1987 -0.4544
  630SOL    HW1 2022   2.146   0.557   2.954  1.1844  0.7311  1.3768
  630SOL    HW2 2023   2.180   0.417   2.906 -1.7157  1.1915 -2.5555
  631SOL     OW 2024   3.198   0.435   0.636 -0.4130  0.2992 -0.4559
  631SOL    HW1 2025   3.107   0.422   0.663 -0.7742  1.1101 -1.2350
  631SOL    HW2 2026   3.205   0.529   0.618  1.0954  0.5971  1.4028
  632SOL     OW 2027   3.245   0.139   3.011  0.1939 -0.2469 -0.3097
  632SOL    HW1 2028   3.330   0.096   3.023  0.9929  1.2117 -0.5311
  632SOL    HW2 2029   3.230   0.136   2.917 -0.2998 -1.0287 -0.2136
  633SOL     OW 2030   0.177   3.680   1.985  0.1755 -0.3689 -0.2834
  633SOL    HW1 2031   0.237   3.619   2.030 -0.2467 -1.7771 -1.5373
  633SOL    HW2 2032   0.210   3.685   1.896 -0.4276  0.4050 -0.4705
  634SOL     OW 2033   2.052   1.566   2.303 -0.2236 -0.2393 -0.2501
  634SOL    HW1 2034   2.124   1.592   2.246  0.1424  0.5310  0.5344
  634SOL    HW2 2035   2.078   1.596   2.390 -0.7967 -1.3401  0.3161
  635SOL     OW 2036   0.771   2.082   3.000 -0.2377  0.3006 -0.5523
  635SOL    HW1 2037   0.769   2.171   2.965  3.9067  1.2592  0.9494
  635SOL    HW2 2038   0.801   2.028   2.928 -0.9662  0.4504 -0.9739
  636SOL     OW 2039   1.733   2.178   2.570 -0.1082  0.3074 -0.0558
  636SOL    HW1 2040   1.816   2.137   2.546 -0.2342 -1.3351  2.0664
  636SOL    HW2 2041   1.756   2.238   2.641 -0.4970  1.2351 -0.6941
  637SOL     OW 2042   0.553   1.251   2.580  0.4389 -0.6269 -0.1703
  637SOL    HW1 2043   0.535   1.295   2.663 -3.3529  1.7161 -1.9580
  637SOL    HW2 2044   0.539   1.158   2.598  1.0932 -0.3550  2.0403
  638SOL     OW 2045   1.817   3.197   2.849  0.6224  0.4774 -0.0861
  638SOL    HW1 2046   1.868   3.238   2.779  2.4341 -1.5286 -0.0675
  638SOL    HW2 2047   1.747   3.151   2.804  0.7290  0.6401 -0.4256
  639SOL     OW 2048   2.364   1.923   1.888  0.2428 -0.6148 -0.5326
  639SOL    HW1 2049   2.359   1.827   1.878  1.8618 -0.9552  1.4524
  639SOL    HW2 2050   2.369   1.937   1.982 -0.7596  1.5130 -0.7551
  640SOL     OW 2051   0.289   1.444   0.054  0.4632  0.0331 -0.0851
  640SOL    HW1 2052   0.359   1.504   0.029  0.5552 -0.1381 -0.2416
  640SOL    HW2 2053   0.323   1.396   0.129 -0.6507  2.1349  1.9026
  641SOL     OW 2054   1.921   2.786   0.320  0.3522 -0.6005  0.3529
  641SOL    HW1 2055   1.945   2.878   0.327  0.4141 -0.5801 -0.0988
  641SOL    HW2 2056   1.884   2.777   0.232 -2.2012 -0.4245  1.3282
  642SOL     OW 2057   3.674   1.576   3.176 -0.0741 -0.1867 -0.0811
  642SOL    HW1 2058   3.681   1.614   3.089  0.7799  0.9418  0.4512
  642SOL    HW2 2059   3.599   1.516   3.171  0.0025 -0.1790 -1.5838
  643SOL     OW 2060   2.661   0.839   0.568  0.7431 -0.2002 -0.4402
  643SOL    HW1 2061   2.727   0.883   0.514  0.7127  1.5930  0.8680
  643SOL    HW2 2062   2.687   0.859   0.658 -0.5927 -0.9779  0.1523
  644SOL     OW 2063   2.033   2.434   0.285 -0.0601  0.9141 -0.1914
  644SOL    HW1 2064   2.055   2.435   0.378  0.6512 -0.3821 -0.3247
  644SOL    HW2 2065   2.115   2.457   0.241 -0.3813  1.4661 -0.5133
  645SOL     OW 2066   3.633   0.278   2.831  0.2632  0.5181  0.2549
  645SOL    HW1 2067   3.696   0.338   2.872 -0.2698  0.4293  1.2525
  645SOL    HW2 2068   3.548   0.305   2.868  0.0831 -1.2552  1.2562
  646SOL     OW 2069   2.082   2.482   1.070 -0.2859  0.1820  0.3760
  646SOL    HW1 2070   1.998   2.508   1.033  0.3228  1.4276 -0.2140
  646SOL    HW2 2071   2.073   2.493   1.164 -1.0480 -0.5443  0.3965
  647SOL     OW 2072   3.362   3.393   2.491  0.4997  0.1123  0.7768
  647SOL    HW1 2073   3.395   3.343   2.565  1.2525  0.4847  0.7015
  647SOL    HW2 2074   3.361   3.484   2.521  0.2022  0.1904  0.5434
  648SOL     OW 2075   0.212   2.592   1.561 -0.4199  0.1433 -0.2329
  648SOL    HW1 2076   0.142   2.575   1.625 -0.4129 -0.1862 -0.3144
  648SOL    HW2 2077   0.170   2.645   1.494 -0.8044 -0.7390 -0.6967
  649SOL     OW 2078   2.123   2.703   3.230 -0.7633 -0.0695  0.5918
  649SOL    HW1 2079   2.154   2.781   3.276  1.1049 -0.2685 -0.2492
  649SOL    HW2 2080   2.058   2.736   3.168  0.6748  1.0056 -0.4241
  650SOL     OW 2081   3.112   2.920   1.955  0.1434  0.3848  0.0162
  650SOL    HW1 2082   3.054   2.995   1.971 -0.8634 -0.2022 -0.7666
  650SOL    HW2 2083   3.131   2.886   2.042 -0.9671  0.4009  0.2819
  651SOL     OW 2084   2.282   2.767   1.229  0.0094 -0.1681  0.2742
  651SOL    HW1 2085   2.336   2.760   1.307 -2.5955 -0.9818  2.1105
  651SOL    HW2 2086   2.272   2.676   1.198  0.8294  0.1194 -0.9242
  652SOL     OW 2087   1.586   0.775   1.249 -0.8194 -0.3888  0.3535
  652SOL    HW1 2088   1.597   0.816   1.163 -0.9024  0.7870  0.8774
  652SOL    HW2 2089   1.653   0.816   1.303 -1.9302  0.2207  1.2994
  653SOL     OW 2090   3.741   1.683   1.652 -0.5611  0.3873 -0.2688
  653SOL    HW1 2091   3.778   1.612   1.703  1.6890  0.6974 -1.3198
  653SOL    HW2 2092   3.685   1.731   1.713  0.3547 -0.4696  1.2995
  654SOL     OW 2093   0.055   3.276   2.730 -0.2271 -0.0685  0.5266
  654SOL    HW1 2094   0.091   3.276   2.819  2.7186  1.0132 -0.5308
  654SOL    HW2 2095   0.061   3.184   2.702  2.3159  0.0820  0.2952
  655SOL     OW 2096   3.213   3.062   2.392  0.0333  0.1653 -0.8016
  655SOL    HW1 2097   3.151   2.993   2.367  1.2526 -0.5926 -1.8500
  655SOL    HW2 2098   3.271   3.071   2.316  1.8196  0.1461  0.4925
  656SOL     OW 2099   3.539   2.708   3.295 -0.2606 -0.0027  0.1559
  656SOL    HW1 2100   3.506   2.685   3.208 -0.2485  2.7302 -0.6390
  656SOL    HW2 2101   3.615   2.650   3.307 -0.5676 -0.7947 -1.4056
  657SOL     OW 2102   2.884   1.774   2.830  0.2128  0.2606  0.0528
  657SOL    HW1 2103   2.800   1.730   2.821  0.9995 -0.8492 -3.3650
  657SOL    HW2 2104   2.946   1.704   2.850  0.7614  0.5638 -0.5545
  658SOL     OW 2105   3.631   3.764   1.316 -0.2735  0.3593  0.5247
  658SOL    HW1 2106   3.587   3.692   1.362  0.1178 -0.8603 -0.9137
  658SOL    HW2 2107   3.724   3.748   1.330 -0.2007  1.2430  1.1122
  659SOL     OW 2108   0.227   3.698   2.658  0.2167 -0.2623  0.2151
  659SOL    HW1 2109   0.229   3.790   2.686 -0.5473  0.5310 -2.0589
  659SOL    HW2 2110   0.136   3.671   2.675 -0.6766  0.6706 -2.4879
  660SOL     OW 2111   1.840   3.163   1.668 -0.3385  0.0926 -0.8527
  660SOL    HW1 2112   1.825   3.181   1.576 -0.6213  0.2254 -0.7835
  660SOL    HW2 2113   1.845   3.068   1.674  1.7900  0.1369 -1.3193
  661SOL     OW 2114   3.228   1.971   1.518 -0.3613 -0.2415  0.2329
  661SOL    HW1 2115   3.302   1.982   1.458 -1.5707  0.1412 -1.2454
  661SOL    HW2 2116   3.243   2.035   1.588 -1.3641  2.9236 -2.2136
  662SOL     OW 2117   0.625   1.374   3.302  0.4355 -0.1233  0.0373
  662SOL    HW1 2118   0.565   1.300   3.301  2.2329 -1.6740 -0.2156
  662SOL    HW2 2119   0.651   1.383   3.394  1.4158 -0.8933 -0.1410
  663SOL     OW 2120   2.470   1.187   3.174  0.2987  0.1651 -0.2135
  663SOL    HW1 2121   2.430   1.236   3.245 -0.9438 -0.5610 -0.3850
  663SOL    HW2 2122   2.476   1.097   3.206  0.3730 -0.0332 -0.7603
  664SOL     OW 2123   1.825   3.670   3.738 -0.0686  0.3407  0.4785
  664SOL    HW1 2124   1.773   3.695   3.662  0.6161  1.1849  0.2658
  664SOL    HW2 2125   1.812   3.575   3.747 -1.1049  0.4336  0.0451
  665SOL     OW 2126   3.527   0.210   1.849 -0.2336 -0.8354 -0.0692
  665SOL    HW1 2127   3.515   0.132   1.902  1.9669 -0.5435  0.9447
  665SOL    HW2 2128   3.621   0.226   1.849 -0.6632  2.3283  0.5284
  666SOL     OW 2129   2.213   1.192   3.380 -0.3161  0.4324 -0.4189
  666SOL    HW1 2130   2.253   1.130   3.440  0.7053  0.6895 -0.8057
  666SOL    HW2 2131   2.166   1.254   3.436 -3.5024 -1.9930 -0.0730
  667SOL     OW 2132   1.143   3.697   2.274  0.5749 -0.5721 -0.8738
  667SOL    HW1 2133   1.112   3.659   2.356 -0.4593  1.9215 -0.0209
  667SOL    HW2 2134   1.163   3.788   2.295  2.6966 -0.4895 -2.8612
  668SOL     OW 2135   1.672   0.651   2.524 -0.4185 -0.1209 -1.1071
  668SOL    HW1 2136   1.743   0.709   2.550 -0.9434  0.7048 -1.4921
  668SOL    HW2 2137   1.677   0.647   2.429  0.2026 -1.4884 -1.0506
  669SOL     OW 2138   2.358   0.470   0.479 -0.1273 -0.2976 -0.1775
  669SOL    HW1 2139   2.274   0.486   0.521  0.0188 -0.2372  0.0969
  669SOL    HW2 2140   2.405   0.414   0.540  0.9565  1.5854  0.8150
  670SOL     OW 2141   0.753   2.850   1.603 -0.0955 -1.2343  0.8602
  670SOL    HW1 2142   0.742   2.937   1.563  0.9406 -1.5158 -0.0903
  670SOL    HW2 2143   0.823   2.863   1.667  0.2313 -1.4194  0.5416
  671SOL     OW 2144   3.093   3.583   0.989 -0.4476 -0.2162 -0.9113
  671SOL    HW1 2145   3.102   3.634   1.069 -1.5955 -1.5135  0.0919
  671SOL    HW2 2146   3.181   3.581   0.952 -0.0952  1.2457 -0.2457
  672SOL     OW 2147   0.903   3.640   2.755 -0.3987  0.7473 -0.1672
  672SOL    HW1 2148   0.828   3.623   2.812  0.4329 -1.0927  0.4678
  672SOL    HW2 2149   0.960   3.564   2.767  0.3612  0.8516 -2.6128
  673SOL     OW 2150   1.270   1.714   1.345  0.1026  0.0258  0.3429
  673SOL    HW1 2151   1.234   1.657   1.413  0.8305  0.2837  0.9535
  673SOL    HW2 2152   1.221   1.796   1.354 -0.6635 -0.3471 -0.2716
  674SOL     OW 2153   2.183   3.259   0.847  0.3239 -0.0285  0.4532
  674SOL    HW1 2154   2.180   3.271   0.942 -1.2512 -1.3669  0.6230
  674SOL    HW2 2155   2.144   3.339   0.812 -0.6977 -0.2579  1.0319
  675SOL     OW 2156   3.019   0.815   2.071  0.1490 -0.3626 -0.4906
  675SOL    HW1 2157   3.108   0.849   2.073  0.0855 -0.1529 -1.0457
  675SOL    HW2 2158   3.002   0.787   2.161  1.5313 -2.3656 -0.7936
  676SOL     OW 2159   2.091   3.457   0.091  0.0571  0.3839  0.2630
  676SOL    HW1 2160   2.010   3.438   0.044 -0.4506  1.7367  0.5204
  676SOL    HW2 2161   2.063   3.468   0.182  0.9544 -1.7557  0.8627
  677SOL     OW 2162   1.399   0.626   3.642  0.0796  0.5193 -0.5336
  677SOL    HW1 2163   1.388   0.661   3.554  0.5560  1.9118 -0.0660
  677SOL    HW2 2164   1.386   0.701   3.700  0.2186 -0.2736  0.5629
  678SOL     OW 2165   0.952   0.100   1.843 -0.1595 -0.0674 -0.0800
  678SOL    HW1 2166   1.011   0.139   1.909 -0.0990 -0.0505 -0.1438
  678SOL    HW2 2167   1.010   0.045   1.790  0.4532  2.4674 -2.2220
  679SOL     OW 2168   3.237   2.431   3.630 -0.9003  0.0822 -0.1061
  679SOL    HW1 2169   3.218   2.368   3.560 -2.4439 -0.8138  1.0666
  679SOL    HW2 2170   3.154   2.443   3.675  0.0423  0.6430  1.5759
  680SOL     OW 2171   2.731   0.795   2.371  0.2440 -0.1774 -0.5507
  680SOL    HW1 2172   2.682   0.872   2.345  0.3914 -0.4325 -1.6765
  680SOL    HW2 2173   2.670   0.743   2.424 -0.6799 -0.4317 -1.8131
  681SOL     OW 2174   2.238   0.761   1.784  0.3589  0.0930  0.2639
  681SOL    HW1 2175   2.161   0.783   1.731 -2.0431 -1.5079  2.8061
  681SOL    HW2 2176   2.264   0.674   1.754 -1.7163 -1.3256  2.2198
  682SOL     OW 2177   0.473   3.162   0.399 -0.0647 -0.2281 -0.4703
  682SOL    HW1 2178   0.482   3.087   0.457 -3.1802 -0.2412  0.1563
  682SOL    HW2 2179   0.471   3.238   0.457 -4.2543 -0.3117 -0.2074
  683SOL     OW 2180   3.538   0.899   2.624  0.1686  0.0775 -0.2712
  683SOL    HW1 2181   3.516   0.959   2.553  2.7182  0.8724 -0.4852
  683SOL    HW2 2182   3.631   0.879   2.612  0.3451 -0.8802  2.0267
  684SOL     OW 2183   2.223   0.890   2.044  0.7320  0.1182 -0.4370
  684SOL    HW1 2184   2.158   0.960   2.037  1.9623  1.2563 -1.0892
  684SOL    HW2 2185   2.208   0.835   1.967 -2.0699 -2.0855  1.4776
  685SOL     OW 2186   0.216   2.906   2.773 -0.8132 -0.2240 -0.0475
  685SOL    HW1 2187   0.274   2.982   2.779 -1.2451 -0.0026  2.4372
  685SOL    HW2 2188   0.171   2.917   2.689  1.3036  0.6108 -1.1438
  686SOL     OW 2189   1.415   1.242   1.964 -0.0714  0.2126  0.0968
  686SOL    HW1 2190   1.502   1.250   2.003 -0.5984 -0.3750  1.4411
  686SOL    HW2 2191   1.355   1.261   2.036 -1.0725  1.4569 -1.0043
  687SOL     OW 2192   3.072   2.117   2.425 -0.0040 -0.4237 -0.5952
  687SOL    HW1 2193   3.024   2.124   2.507  1.7163  1.5941  0.3179
  687SOL    HW2 2194   3.085   2.022   2.413  0.4093 -0.7466  1.9084
  688SOL     OW 2195   0.791   0.288   2.463 -0.0610 -0.4001 -0.0723
  688SOL    HW1 2196   0.874   0.268   2.506 -0.4695  0.0567  0.9882
  688SOL    HW2 2197   0.725   0.273   2.531 -0.7005  0.7558 -0.3999
  689SOL     OW 2198   3.617   0.449   3.146 -0.2669  0.6686  0.2582
  689SOL    HW1 2199   3.567   0.400   3.081  0.9507  2.3787 -2.1309
  689SOL    HW2 2200   3.558   0.457   3.220 -2.0016 -0.7967 -0.8620
  690SOL     OW 2201   2.746   0.401   1.988  0.1855 -0.0109  0.3236
  690SOL    HW1 2202   2.838   0.426   1.978 -0.3419  2.0775  0.3005
  690SOL    HW2 2203   2.715   0.452   2.062 -1.4829  0.9330 -0.9612
  691SOL     OW 2204   0.540   2.877   0.966  0.4787  0.7574 -0.2647
  691SOL    HW1 2205   0.613   2.840   0.916  0.4675  1.6516 -0.9671
  691SOL    HW2 2206   0.520   2.811   1.033  2.1013  0.6206  0.1162
  692SOL     OW 2207   0.334   0.613  -0.005  0.4903  0.2625  0.2388
  692SOL    HW1 2208   0.389   0.549  -0.051  1.0855 -1.0614  2.6280
  692SOL    HW2 2209   0.376   0.624   0.080 -0.5308  2.6556  0.5193
  693SOL     OW 2210   1.922   2.451   2.362  0.1895  0.3655  0.6896
  693SOL    HW1 2211   2.007   2.408   2.365  1.3717  2.4347 -0.4150
  693SOL    HW2 2212   1.939   2.540   2.395 -1.0902  1.4302 -1.3269
  694SOL     OW 2213   2.655   3.204   1.439  0.3271  0.2476 -0.3862
  694SOL    HW1 2214   2.686   3.228   1.351  2.4829  2.3116  0.8113
  694SOL    HW2 2215   2.560   3.200   1.430  0.3745  1.8382 -2.5178
  695SOL     OW 2216   0.766   1.986   3.276 -0.1183  0.8708  0.0754
  695SOL    HW1 2217   0.803   2.066   3.314  0.8463  0.1625  0.6549
  695SOL    HW2 2218   0.766   2.002   3.182  2.0526  0.7561  0.0189
  696SOL     OW 2219   3.133   3.112   3.586  0.2658  0.2080  0.0624
  696SOL    HW1 2220   3.203   3.149   3.640  0.8984  0.6861 -1.0484
  696SOL    HW2 2221   3.134   3.165   3.506 -0.5915 -0.5295 -0.4553
  697SOL     OW 2222   2.014   2.932   0.045 -0.2053 -0.2865  0.2492
  697SOL    HW1 2223   2.110   2.928   0.042 -0.2450 -1.2795 -1.5364
  697SOL    HW2 2224   1.994   2.995   0.114  1.7231 -0.4026  0.9717
  698SOL     OW 2225   2.406   3.293   0.320  0.3521  0.1242  0.4992
  698SOL    HW1 2226   2.386   3.348   0.245  1.1372 -1.7593 -1.1702
  698SOL    HW2 2227   2.362   3.336   0.394 -3.0446  0.4130 -1.5182
  699SOL     OW 2228   1.516   2.432   0.315 -0.0504  0.0132 -0.4852
  699SOL    HW1 2229   1.603   2.470   0.303  1.4921 -3.1670 -0.4249
  699SOL    HW2 2230   1.493   2.453   0.405  2.4195 -2.1035  0.7935
  700SOL     OW 2231   3.418   0.072   0.447  0.6000 -0.3676  0.2484
  700SOL    HW1 2232   3.396   0.163   0.464  0.2107 -0.4985  0.4721
  700SOL    HW2 2233   3.465   0.043   0.525 -1.5931 -1.1013  1.3863
  701SOL     OW 2234   2.646   3.713   2.482 -0.5620 -0.6717  0.2355
  701SOL    HW1 2235   2.597   3.728   2.563 -0.8243  0.0048 -0.0449
  701SOL    HW2 2236   2.698   3.634   2.500  0.4255  0.2423  1.5410
  702SOL     OW 2237   0.096   2.712   2.936  0.1726 -0.1830  0.0516
  702SOL    HW1 2238   0.026   2.759   2.980  0.6365 -0.1275  0.7396
  702SOL    HW2 2239   0.128   2.773   2.870  0.1583  0.1221  0.3272
  703SOL     OW 2240   1.634   3.012   3.230 -0.2369 -0.4698  0.0004
  703SOL    HW1 2241   1.589   3.042   3.151  2.5034  1.2260 -1.0497
  703SOL    HW2 2242   1.704   2.955   3.198  0.0820 -0.8600  1.3317
  704SOL     OW 2243   0.039   2.780   2.430 -0.2079 -0.0499 -0.3202
  704SOL    HW1 2244   0.042   2.688   2.407 -2.1894  0.1840 -1.8402
  704SOL    HW2 2245   0.123   2.815   2.402  0.7064 -1.4260  0.6036
  705SOL     OW 2246   3.400   0.884   1.557  0.3665  0.2058 -0.4163
  705SOL    HW1 2247   3.385   0.933   1.476 -2.3446  0.6229  0.2412
  705SOL    HW2 2248   3.428   0.798   1.527 -0.2279  0.4627 -1.8148
  706SOL     OW 2249   1.199   2.810   1.603  0.2730 -0.6619  0.7278
  706SOL    HW1 2250   1.253   2.771   1.672  2.1630  1.2123  0.3885
  706SOL    HW2 2251   1.159   2.887   1.644 -0.3782 -0.7871  0.3415
  707SOL     OW 2252   0.253   2.527   0.275 -0.5664  0.5668 -0.0526
  707SOL    HW1 2253   0.159   2.519   0.259 -0.2018 -0.9771 -1.6846
  707SOL    HW2 2254   0.281   2.438   0.297  0.6570  0.8321 -0.4461
  708SOL     OW 2255   2.745   2.372   3.173  0.2917 -0.4525  0.0610
  708SOL    HW1 2256   2.746   2.468   3.183 -1.0411 -0.1885 -1.7963
  708SOL    HW2 2257   2.802   2.355   3.098  0.1347 -1.0691  0.0768
  709SOL     OW 2258   1.925   0.058   3.022  0.6061 -0.5663 -0.3340
  709SOL    HW1 2259   1.861   0.034   2.955 -0.5325  0.9216  0.1409
  709SOL    HW2 2260   1.951  -0.025   3.062 -2.0574 -1.1768  0.3287
  710SOL     OW 2261   3.406   1.970   3.213 -0.0197 -0.4106  0.2577
  710SOL    HW1 2262   3.422   1.887   3.258  0.2978  0.3307  1.5388
  710SOL    HW2 2263   3.479   1.977   3.151  0.7258 -0.4445  1.1094
  711SOL     OW 2264   1.605   3.471   0.618  0.1000 -0.3446  1.0334
  711SOL    HW1 2265   1.514   3.481   0.588 -0.0175  3.4154  2.1498
  711SOL    HW2 2266   1.598   3.422   0.700 -0.6592 -1.5597  0.2901
  712SOL     OW 2267   1.218   1.322   3.537  0.0215 -0.3268  0.4138
  712SOL    HW1 2268   1.291   1.371   3.575 -0.7324  1.0627  0.1224
  712SOL    HW2 2269   1.155   1.313   3.609 -0.7484  0.9877 -0.0706
  713SOL     OW 2270   3.446   2.364   3.201 -0.3729  0.3738 -0.2452
  713SOL    HW1 2271   3.479   2.289   3.250 -1.3119 -0.1083 -0.3267
  713SOL    HW2 2272   3.523   2.399   3.156  0.2475  0.0297  0.5259
  714SOL     OW 2273   0.750   2.667   1.360 -0.0576 -0.4001  0.1244
  714SOL    HW1 2274   0.692   2.729   1.316 -0.0705 -1.2169 -1.0497
  714SOL    HW2 2275   0.741   2.687   1.453 -0.0457  1.3659 -0.2278
  715SOL     OW 2276   2.637   2.270   0.305 -0.2585 -0.3910  0.7664
  715SOL    HW1 2277   2.663   2.248   0.394 -0.7918 -1.8616  0.5805
  715SOL    HW2 2278   2.717   2.259   0.253  0.0578  0.4889  1.0460
  716SOL     OW 2279   3.070   1.569   2.927 -0.4622  0.0576 -1.0807
  716SOL    HW1 2280   3.143   1.629   2.917 -0.0902 -0.6028 -2.5137
  716SOL    HW2 2281   3.075   1.511   2.851 -1.1797 -1.3959 -0.0747
  717SOL     OW 2282   3.142   2.187   0.945 -0.4027  0.1744  0.3409
  717SOL    HW1 2283   3.163   2.173   0.853  3.2791  0.0210  1.0571
  717SOL    HW2 2284   3.152   2.100   0.985  2.8501  0.9611  1.5492
  718SOL     OW 2285   0.846   1.800   0.439 -0.2349 -0.5151  0.3685
  718SOL    HW1 2286   0.909   1.774   0.371 -1.9255 -2.0226 -0.7068
  718SOL    HW2 2287   0.876   1.754   0.517  0.3531 -0.7324  0.0250
  719SOL     OW 2288   2.329   2.929   0.559  0.2101  0.0025  0.4220
  719SOL    HW1 2289   2.414   2.894   0.587 -0.4719  0.1147  2.9009
  719SOL    HW2 2290   2.284   2.854   0.521  1.0814 -0.2587 -0.1359
  720SOL     OW 2291   0.483   1.620  -0.009  0.1017 -0.4326  0.1870
  720SOL    HW1 2292   0.531   1.627   0.074  2.3305 -0.1797 -1.0540
  720SOL    HW2 2293   0.422   1.693  -0.007  0.7460  0.1105  1.2137
  721SOL     OW 2294   0.192   2.042   2.102  0.2765  0.3486 -0.3885
  721SOL    HW1 2295   0.182   1.957   2.059  0.0083  0.3188 -0.2691
  721SOL    HW2 2296   0.168   2.106   2.035 -0.2898  0.2959 -0.2395
  722SOL     OW 2297   0.099   1.354   1.116 -0.4065 -0.2877 -0.0358
  722SOL    HW1 2298   0.040   1.392   1.051 -0.0486  1.4963  0.6191
  722SOL    HW2 2299   0.060   1.377   1.200 -0.0991 -1.2991  0.3988
  723SOL     OW 2300   2.540   2.197   3.016 -0.1624 -0.1335 -0.2951
  723SOL    HW1 2301   2.621   2.145   3.008 -0.8084 -0.9911 -1.6136
  723SOL    HW2 2302   2.474   2.135   3.042 -0.4468  0.5446  0.6374
  724SOL     OW 2303   1.325   2.446   0.824  0.2689 -0.5132 -0.0942
  724SOL    HW1 2304   1.285   2.360   0.836 -0.0325 -0.4503 -0.6038
  724SOL    HW2 2305   1.374   2.462   0.904  0.3488 -1.1749 -0.0094
  725SOL     OW 2306   1.636   1.121   0.722 -0.0328 -0.2362 -0.2020
  725SOL    HW1 2307   1.696   1.186   0.760  0.2897  0.1043 -1.2584
  725SOL    HW2 2308   1.598   1.077   0.797  2.7293 -1.6022  0.5508
  726SOL     OW 2309   2.284   2.674   0.387  0.2516 -0.4073  0.5154
  726SOL    HW1 2310   2.355   2.612   0.369  1.7974  1.5441 -0.4197
  726SOL    HW2 2311   2.241   2.686   0.302  0.0500 -0.0825  0.6623
  727SOL     OW 2312   2.410   0.437   1.351  0.3758  0.2511  0.0644
  727SOL    HW1 2313   2.318   0.427   1.327  0.2880  1.1691 -0.0213
  727SOL    HW2 2314   2.444   0.347   1.353 -0.6247 -0.1330  0.5475
  728SOL     OW 2315   1.193   1.316   3.271  0.0610 -0.1032  0.2443
  728SOL    HW1 2316   1.278   1.275   3.287 -0.4951 -1.7341 -0.6543
  728SOL    HW2 2317   1.141   1.295   3.349 -0.2809 -1.3725 -0.2897
  729SOL     OW 2318   1.698   2.425   0.603  0.3121  0.0014  0.2722
  729SOL    HW1 2319   1.758   2.412   0.677  0.8897  1.9368  0.2179
  729SOL    HW2 2320   1.751   2.472   0.538 -0.2205 -1.5328 -1.3466
  730SOL     OW 2321   1.035   2.590   1.491 -0.6014 -0.4407  0.0857
  730SOL    HW1 2322   0.943   2.563   1.489 -0.4142 -1.0833  0.0415
  730SOL    HW2 2323   1.056   2.594   1.584 -0.1908 -1.9977  0.0847
  731SOL     OW 2324   2.107   2.102   0.146  0.0015  0.0493  0.0019
  731SOL    HW1 2325   2.034   2.145   0.100 -0.6165 -1.1832 -0.2147
  731SOL    HW2 2326   2.132   2.030   0.088  0.2676 -0.5699  0.8780
  732SOL     OW 2327   2.578   1.477   3.244  0.1327 -0.2042 -0.1184
  732SOL    HW1 2328   2.524   1.511   3.173 -1.9417 -0.5615  1.1830
  732SOL    HW2 2329   2.637   1.414   3.203 -2.7339 -2.3568 -1.2705
  733SOL     OW 2330   1.117   3.202   1.354 -0.3025 -0.8411  0.1605
  733SOL    HW1 2331   1.031   3.208   1.395  0.2452  0.2391  1.2035
  733SOL    HW2 2332   1.172   3.262   1.405  0.5582  0.0982 -1.7573
  734SOL     OW 2333   0.868   3.489   0.760  0.1118  0.3402  0.1831
  734SOL    HW1 2334   0.947   3.488   0.815 -0.2574  1.3176  0.7545
  734SOL    HW2 2335   0.796   3.488   0.823 -0.3318  0.0135 -0.3275
  735SOL     OW 2336   2.541   2.716   1.088  0.0700  0.2246 -0.7622
  735SOL    HW1 2337   2.573   2.806   1.099  1.0946 -0.1942 -0.0773
  735SOL    HW2 2338   2.446   2.724   1.088  0.1094  1.1771  0.7839
  736SOL     OW 2339   3.287   2.892   0.165 -0.5186 -0.0808 -0.7768
  736SOL    HW1 2340   3.274   2.850   0.080 -2.7985 -0.7113 -0.1944
  736SOL    HW2 2341   3.381   2.884   0.182 -0.2968 -1.5475 -2.4155
  737SOL     OW 2342   2.997   2.006   2.705  0.0681  0.3051 -0.2021
  737SOL    HW1 2343   2.953   1.934   2.750  0.0531  0.7017  0.4423
  737SOL    HW2 2344   2.950   2.016   2.622  0.7581 -1.1156 -0.7832
  738SOL     OW 2345   2.004   0.085   1.395 -0.0747  0.0094  0.4326
  738SOL    HW1 2346   1.959   0.144   1.335 -0.4991 -0.7114  0.0247
  738SOL    HW2 2347   2.054   0.143   1.453 -1.3290  0.8256  0.7500
  739SOL     OW 2348   2.334   3.345   0.043  0.3103  1.1892  0.0762
  739SOL    HW1 2349   2.243   3.367   0.060 -0.3129 -0.6241 -0.6933
  739SOL    HW2 2350   2.346   3.361  -0.051  0.2420 -0.2768 -0.1982
  740SOL     OW 2351   1.235   1.715   2.393  0.2452 -0.3803  0.0141
  740SOL    HW1 2352   1.315   1.749   2.352  1.2009 -1.5531  0.8480
  740SOL    HW2 2353   1.164   1.749   2.338  1.3224  0.3909 -0.9536
  741SOL     OW 2354   3.422   2.645   1.700 -0.0482  0.0981  0.2143
  741SOL    HW1 2355   3.399   2.632   1.792  0.3455 -1.3695  0.1407
  741SOL    HW2 2356   3.517   2.653   1.701  0.0881 -1.2591 -0.1700
  742SOL     OW 2357   2.861   1.080   0.253  0.0199  0.3973  0.1578
  742SOL    HW1 2358   2.799   1.008   0.252 -0.6262  0.9474 -0.3817
  742SOL    HW2 2359   2.936   1.047   0.302 -0.3351 -0.5759  0.0572
  743SOL     OW 2360   2.904   2.188   1.258 -0.8069 -0.1629  0.5940
  743SOL    HW1 2361   2.884   2.167   1.350  0.0828 -0.8743  0.6347
  743SOL    HW2 2362   2.984   2.241   1.263 -1.5022  0.9566  0.2999
  744SOL     OW 2363   2.023   0.469   1.600 -0.0554  0.8329 -0.6121
  744SOL    HW1 2364   1.998   0.546   1.549 -1.1747  0.5882 -0.4623
  744SOL    HW2 2365   2.010   0.495   1.691  1.4447  1.0994 -0.4530
  745SOL     OW 2366   1.400   0.807   2.654  0.2008 -0.6530  0.5010
  745SOL    HW1 2367   1.445   0.742   2.599  0.1580  0.5472 -1.0398
  745SOL    HW2 2368   1.409   0.774   2.743  4.0998 -0.5282  0.2958
  746SOL     OW 2369   2.629   3.221   2.596 -0.4520  0.1406  0.3202
  746SOL    HW1 2370   2.690   3.162   2.552  0.2261  0.7528  0.4125
  746SOL    HW2 2371   2.683   3.295   2.623 -1.2072  0.6119  0.5727
  747SOL     OW 2372   0.677   1.815   0.072 -0.0369 -0.1064 -0.3131
  747SOL    HW1 2373   0.741   1.865   0.123 -0.2192 -0.3651  0.1659
  747SOL    HW2 2374   0.597   1.866   0.078  0.0836  0.1599 -0.8232
  748SOL     OW 2375   2.331   2.935   1.700 -0.0423  0.0724 -0.1360
  748SOL    HW1 2376   2.300   2.895   1.782  0.3403 -0.2136 -0.1255
  748SOL    HW2 2377   2.259   2.921   1.639 -0.8982  1.4889  0.4986
  749SOL     OW 2378   2.681   3.419   3.430 -0.3739  0.4787  0.0795
  749SOL    HW1 2379   2.587   3.404   3.439 -0.2778 -0.1052  0.1099
  749SOL    HW2 2380   2.697   3.502   3.475 -0.2478 -1.2173  3.4464
  750SOL     OW 2381   2.263   1.888   0.988 -0.8457 -0.3283 -0.1953
  750SOL    HW1 2382   2.288   1.952   1.055 -0.7376 -2.5171  2.0032
  750SOL    HW2 2383   2.169   1.875   1.001 -0.5668 -1.8208  0.5990
  751SOL     OW 2384   0.620   0.640   2.669  0.0495 -0.3884  0.0307
  751SOL    HW1 2385   0.631   0.689   2.751  0.0878 -0.1786 -0.1003
  751SOL    HW2 2386   0.708   0.609   2.648  0.2656  0.6328 -0.6046
  752SOL     OW 2387   2.754   3.483   1.481  0.0493 -0.1251 -0.4736
  752SOL    HW1 2388   2.729   3.435   1.560  1.8630 -0.3598  0.0118
  752SOL    HW2 2389   2.750   3.419   1.411  0.4554 -0.4702 -0.1875
  753SOL     OW 2390   2.246   1.639   1.910  0.1424 -0.1205 -0.3784
  753SOL    HW1 2391   2.216   1.573   1.847 -0.7660  0.2441 -0.3387
  753SOL    HW2 2392   2.166   1.673   1.950  0.6444  0.4525  0.1727
  754SOL     OW 2393   2.696   0.049   3.353 -0.3174 -0.4922  0.4095
  754SOL    HW1 2394   2.746  -0.011   3.298  0.5958 -0.3826  1.1037
  754SOL    HW2 2395   2.723   0.029   3.442 -2.4806 -1.3063  0.9395
  755SOL     OW 2396   3.424   0.142   0.099  0.3030  0.1806  0.3994
  755SOL    HW1 2397   3.430   0.196   0.177  1.6907  1.6007 -0.6133
  755SOL    HW2 2398   3.337   0.160   0.063  0.0245  0.2491  1.0989
  756SOL     OW 2399   1.857   0.706   0.339  0.3700  0.5891 -0.3028
  756SOL    HW1 2400   1.914   0.668   0.273 -0.3078 -0.9542 -0.0503
  756SOL    HW2 2401   1.875   0.800   0.336  1.9466  0.2890 -1.1232
  757SOL     OW 2402   1.651   2.191   1.777  0.2868  0.9499 -1.2659
  757SOL    HW1 2403   1.693   2.180   1.862 -1.7283  0.7811 -0.2425
  757SOL    HW2 2404   1.697   2.129   1.720  0.0225 -0.8373  0.3497
  758SOL     OW 2405   2.772   2.968   0.353  0.0748 -0.1627 -0.0820
  758SOL    HW1 2406   2.850   3.004   0.394  0.8357 -1.5263 -0.2817
  758SOL    HW2 2407   2.804   2.928   0.272 -0.9671  0.0073 -0.5957
  759SOL     OW 2408   0.280   3.287   1.783  0.2143  0.2395 -0.0611
  759SOL    HW1 2409   0.208   3.341   1.818 -0.9238 -1.7232  0.8319
  759SOL    HW2 2410   0.258   3.198   1.812  1.9415 -0.7255 -1.5656
  760SOL     OW 2411   1.010   0.993   3.014 -0.3476  0.2350 -0.1424
  760SOL    HW1 2412   1.079   0.951   3.066 -1.0465  0.0666  0.6666
  760SOL    HW2 2413   0.929   0.956   3.048 -0.8095 -0.2622 -1.7016
  761SOL     OW 2414   0.001   2.417   2.750  0.4345  0.0597  0.5539
  761SOL    HW1 2415  -0.067   2.477   2.719  1.6794  1.1323 -0.2271
  761SOL    HW2 2416   0.083   2.459   2.723  1.3926 -1.3589  1.1721
  762SOL     OW 2417   1.080   2.287   2.513 -0.2178 -1.1699 -0.0924
  762SOL    HW1 2418   1.037   2.207   2.483  0.9119 -1.3504 -1.3286
  762SOL    HW2 2419   1.106   2.269   2.603 -0.2588 -2.0939 -0.2633
  763SOL     OW 2420   1.168   1.949   1.423 -0.5879 -0.2104 -0.1084
  763SOL    HW1 2421   1.225   1.993   1.486 -0.0705 -1.6528  0.4725
  763SOL    HW2 2422   1.080   1.981   1.444 -0.1524  1.1719 -0.2792
  764SOL     OW 2423   3.262   1.378   1.491  0.1582  0.5671  0.0742
  764SOL    HW1 2424   3.351   1.363   1.523  0.1666 -1.3425 -0.7299
  764SOL    HW2 2425   3.207   1.323   1.547  0.0213 -1.7126 -2.1296
  765SOL     OW 2426   1.919   3.629   1.606 -0.3052  0.7057 -0.4631
  765SOL    HW1 2427   1.973   3.554   1.630  0.8490  1.1039 -1.6644
  765SOL    HW2 2428   1.971   3.705   1.631 -0.4395  1.0956 -1.3114
  766SOL     OW 2429   0.140   1.172   0.864 -0.2448 -0.3546  1.0713
  766SOL    HW1 2430   0.149   1.135   0.952  1.3602  1.0978  1.5857
  766SOL    HW2 2431   0.109   1.262   0.879 -0.1751 -0.1639  0.1482
  767SOL     OW 2432   1.098   1.129   1.914  0.6705 -0.3052  0.3355
  767SOL    HW1 2433   1.029   1.190   1.888  1.4814  0.0124 -1.1861
  767SOL    HW2 2434   1.061   1.042   1.897  0.1639 -0.1935  0.8283
  768SOL     OW 2435   1.652   2.182   1.000 -0.5045 -0.6204 -0.1220
  768SOL    HW1 2436   1.576   2.124   1.001 -0.2333 -0.9968 -1.0754
  768SOL    HW2 2437   1.723   2.130   1.039 -0.6949 -0.2964  0.6920
  769SOL     OW 2438   2.561   2.422   3.476 -0.3085 -0.1288  0.2621
  769SOL    HW1 2439   2.555   2.461   3.388 -1.3192  2.3618  1.3476
  769SOL    HW2 2440   2.476   2.441   3.516 -1.2121 -4.2208  0.7285
  770SOL     OW 2441   1.206   0.552   1.796  0.1313  0.4359 -0.1225
  770SOL    HW1 2442   1.173   0.595   1.717  1.6426  2.6846  0.3742
  770SOL    HW2 2443   1.278   0.497   1.766 -0.1035  0.3048 -0.4510
  771SOL     OW 2444   3.653   1.800   1.415 -0.5528  0.4343  0.6043
  771SOL    HW1 2445   3.661   1.718   1.462  2.3445  0.8234  0.9607
  771SOL    HW2 2446   3.584   1.848   1.461 -1.1823 -1.1281  1.3541
  772SOL     OW 2447   1.508   1.501   1.796  0.2693  0.2052  0.3246
  772SOL    HW1 2448   1.414   1.512   1.813  0.3445 -0.5340  1.3273
  772SOL    HW2 2449   1.513   1.464   1.708 -0.2690  2.0473 -0.5275
  773SOL     OW 2450   3.216   1.428   0.813  0.1771  0.0186 -0.0390
  773SOL    HW1 2451   3.166   1.367   0.867 -0.1917  0.3242 -0.0319
  773SOL    HW2 2452   3.165   1.509   0.815  1.3798  0.7725  1.0961
  774SOL     OW 2453   0.714   1.359   2.372 -0.6466  0.5510 -0.3612
  774SOL    HW1 2454   0.670   1.342   2.455  0.1061  0.4902  0.0392
  774SOL    HW2 2455   0.807   1.365   2.396 -0.4329  0.5931 -1.1892
  775SOL     OW 2456   2.497   0.596   1.726 -0.4286 -0.5017 -0.2831
  775SOL    HW1 2457   2.592   0.603   1.713 -0.4693  3.3666  0.4062
  775SOL    HW2 2458   2.485   0.591   1.821 -0.9628 -0.9948 -0.3649
  776SOL     OW 2459   3.532   2.040   2.892 -0.2793  0.4524  0.0161
  776SOL    HW1 2460   3.509   2.114   2.836 -0.9218  1.0546  1.0372
  776SOL    HW2 2461   3.605   2.073   2.945  0.1124  0.0017 -0.2444
  777SOL     OW 2462   0.456   2.484   1.473 -0.1578  1.0171  0.3663
  777SOL    HW1 2463   0.375   2.532   1.490 -0.5602  0.0815  1.1534
  777SOL    HW2 2464   0.516   2.514   1.542  0.0088  1.3391  0.0834
  778SOL     OW 2465   0.292   1.545   0.902  0.4076  0.2158 -0.0101
  778SOL    HW1 2466   0.342   1.497   0.835 -0.7394  0.2731 -0.9396
  778SOL    HW2 2467   0.351   1.616   0.930  0.9156  0.1806 -0.9524
  779SOL     OW 2468   3.263   1.921   2.138 -0.5228 -0.2647 -0.2991
  779SOL    HW1 2469   3.195   1.894   2.200  1.1232 -1.5967  1.0200
  779SOL    HW2 2470   3.283   1.842   2.089 -2.4243  0.9620 -3.3052
  780SOL     OW 2471   1.874   0.952   0.968 -0.6434 -0.6729 -0.1501
  780SOL    HW1 2472   1.955   0.903   0.950  0.1919  1.1148 -1.6251
  780SOL    HW2 2473   1.877   1.026   0.908 -1.6800  1.4046  2.1850
  781SOL     OW 2474   0.218   1.164   0.602 -0.5801  0.7217 -0.2585
  781SOL    HW1 2475   0.294   1.217   0.578 -0.1852  0.2569 -0.0456
  781SOL    HW2 2476   0.206   1.180   0.696  0.9104 -1.2299  0.3478
  782SOL     OW 2477   1.699   1.767   3.072  0.0674  0.1882 -0.1715
  782SOL    HW1 2478   1.611   1.772   3.110 -0.1714  2.0975 -0.8638
  782SOL    HW2 2479   1.755   1.808   3.138 -0.0754  1.8601 -1.0413
  783SOL     OW 2480   2.773   0.308   3.395 -0.2845  0.0713  0.6462
  783SOL    HW1 2481   2.745   0.364   3.322 -1.7527 -1.1583  0.2149
  783SOL    HW2 2482   2.748   0.220   3.368  0.0155 -0.5354  2.2490
  784SOL     OW 2483   0.925   2.848   1.818  0.1734  0.2462 -0.1687
  784SOL    HW1 2484   0.952   2.826   1.907 -0.3220  1.9057  0.4155
  784SOL    HW2 2485   0.976   2.925   1.795 -1.2120  1.1145 -0.4892
  785SOL     OW 2486   0.719   1.532   1.604  0.2933  0.1398 -0.2950
  785SOL    HW1 2487   0.676   1.615   1.625 -2.9250 -1.3335 -0.4925
  785SOL    HW2 2488   0.759   1.546   1.518 -0.7795  1.3031 -0.6252
  786SOL     OW 2489   1.740   1.464   3.166  0.2467 -0.1260 -0.0689
  786SOL    HW1 2490   1.799   1.540   3.164 -0.2261  0.3542  2.0614
  786SOL    HW2 2491   1.781   1.404   3.229 -0.6958 -0.5171  0.1822
  787SOL     OW 2492   0.956   3.649   3.161 -0.3453 -0.3930  0.8215
  787SOL    HW1 2493   0.988   3.572   3.114 -0.8662  0.0590 -0.3283
  787SOL    HW2 2494   0.897   3.614   3.228 -1.9442 -0.9574 -0.7884
  788SOL     OW 2495   0.170   3.008   0.490 -0.3106  0.2048 -0.2899
  788SOL    HW1 2496   0.121   3.004   0.407 -1.7610  3.3799  0.2474
  788SOL    HW2 2497   0.256   2.974   0.468 -0.9205  0.0697 -2.8842
  789SOL     OW 2498   0.456   1.743   2.580 -0.6122 -0.2654  0.1076
  789SOL    HW1 2499   0.493   1.681   2.517  0.4807  0.1736  0.3040
  789SOL    HW2 2500   0.511   1.734   2.658 -1.3676 -0.1178  0.6717
  790SOL     OW 2501   2.931   2.652   3.118 -0.0481  0.2200 -0.7997
  790SOL    HW1 2502   2.955   2.582   3.058 -2.2664 -0.4552 -1.0045
  790SOL    HW2 2503   2.919   2.728   3.062 -2.2471 -0.4399 -1.3279
  791SOL     OW 2504   2.813   0.055   0.746 -0.2362 -0.0444 -0.7002
  791SOL    HW1 2505   2.838   0.077   0.657  2.0098  0.0396 -0.0926
  791SOL    HW2 2506   2.854  -0.030   0.763 -1.4393 -0.5226 -0.0506
  792SOL     OW 2507   2.076   1.625   3.454  0.2982 -0.4931  0.1271
  792SOL    HW1 2508   2.114   1.605   3.368  0.2744 -0.4163  0.0979
  792SOL    HW2 2509   2.057   1.540   3.492  0.2680 -0.5273  0.0371
  793SOL     OW 2510   0.937   0.379   1.699 -0.4564  0.5833 -0.1529
  793SOL    HW1 2511   0.953   0.407   1.789 -2.7739  0.7283  0.2705
  793SOL    HW2 2512   0.885   0.300   1.708  2.8178 -1.9349 -1.3901
  794SOL     OW 2513   3.391   0.942   3.007  0.9324  0.0786  0.6821
  794SOL    HW1 2514   3.395   0.859   2.960  0.0198 -0.1662  1.0180
  794SOL    HW2 2515   3.433   1.005   2.948  2.5579 -0.7912  0.8572
  795SOL     OW 2516   1.768   1.337   2.919 -0.0890  0.3837 -0.4092
  795SOL    HW1 2517   1.748   1.416   2.968  0.4400  0.6409 -0.6073
  795SOL    HW2 2518   1.770   1.268   2.986  1.5770  0.8793  0.0965
  796SOL     OW 2519   3.583   3.427   0.734 -0.1810 -0.1761 -0.3991
  796SOL    HW1 2520   3.646   3.498   0.717 -2.5547  2.5038  1.2378
  796SOL    HW2 2521   3.609   3.358   0.672  4.9750  0.2052  0.8613
  797SOL     OW 2522   1.355   0.804   0.097  0.3498  0.6264 -0.2405
  797SOL    HW1 2523   1.383   0.895   0.108  3.7774 -0.3317 -0.1271
  797SOL    HW2 2524   1.321   0.778   0.182 -0.9950  1.8360 -0.3652
  798SOL     OW 2525   0.597   0.891   2.301 -0.3562  0.1935  0.3142
  798SOL    HW1 2526   0.628   0.814   2.253 -2.0730  0.2201 -0.9293
  798SOL    HW2 2527   0.531   0.857   2.361  0.0015  0.5019  0.8909
  799SOL     OW 2528   3.051   2.914   3.009 -0.0817  0.3168  0.3588
  799SOL    HW1 2529   3.033   2.960   3.090  1.3609  1.0527  0.2890
  799SOL    HW2 2530   2.970   2.923   2.958 -0.8683  0.1586  1.5458
  800SOL     OW 2531   0.602   3.130   0.140  0.2533 -0.1432  0.2592
  800SOL    HW1 2532   0.562   3.150   0.225 -0.2814  1.1685 -0.2815
  800SOL    HW2 2533   0.639   3.042   0.152 -0.9077 -0.5148  1.4630
  801SOL     OW 2534   3.472   0.352   0.566 -0.4396 -0.7660  0.0164
  801SOL    HW1 2535   3.378   0.363   0.571 -0.5485 -1.6071  0.0002
  801SOL    HW2 2536   3.498   0.396   0.485 -1.0081 -1.7162 -0.6984
  802SOL     OW 2537   2.709   2.859   3.746 -0.3098  0.1030 -0.0208
  802SOL    HW1 2538   2.797   2.832   3.720 -0.8436 -1.9735  0.1415
  802SOL    HW2 2539   2.652   2.788   3.717 -2.0266  1.5891 -0.4957
  803SOL     OW 2540   1.504   2.800   3.517  0.4816  0.0178  0.1922
  803SOL    HW1 2541   1.592   2.778   3.546  1.0127 -0.5177 -1.6469
  803SOL    HW2 2542   1.508   2.895   3.499  0.8703 -0.1018 -0.4008
  804SOL     OW 2543   3.562   1.000   3.542 -0.0632  0.0132  0.1256
  804SOL    HW1 2544   3.601   0.913   3.533  0.9038  0.5400 -1.0826
  804SOL    HW2 2545   3.589   1.030   3.629  0.4674 -0.4901  0.1426
  805SOL     OW 2546   2.646   2.487   0.902 -0.0947 -0.6728  0.0551
  805SOL    HW1 2547   2.734   2.518   0.878 -0.3628 -0.6873 -1.0063
  805SOL    HW2 2548   2.597   2.567   0.922 -0.0848 -0.5978 -0.2171
  806SOL     OW 2549   1.872   0.600   0.057 -0.4904 -0.1940  0.4668
  806SOL    HW1 2550   1.794   0.549   0.080  0.0317 -1.2655 -0.0554
  806SOL    HW2 2551   1.840   0.690   0.047 -2.3298 -1.0467 -2.7303
  807SOL     OW 2552   1.631   3.669   2.238 -0.6207  0.2044 -0.4032
  807SOL    HW1 2553   1.605   3.651   2.328 -2.8723 -1.9825 -1.3923
  807SOL    HW2 2554   1.725   3.650   2.236 -0.3957  0.8339  1.5456
  808SOL     OW 2555   0.060   1.943   3.237 -0.1382  0.5509 -0.0556
  808SOL    HW1 2556   0.033   1.885   3.309 -0.2214  0.9863  0.2718
  808SOL    HW2 2557   0.137   1.900   3.200  1.5201  1.5451  1.9554
  809SOL     OW 2558   1.431   3.408   1.807 -0.4851 -0.3663 -0.3749
  809SOL    HW1 2559   1.478   3.326   1.796 -0.2442 -0.4510  1.0238
  809SOL    HW2 2560   1.493   3.475   1.778 -0.3524 -0.6184 -0.6801
  810SOL     OW 2561   2.803   3.094   0.625  0.2184 -0.4238  0.0736
  810SOL    HW1 2562   2.828   3.180   0.592  1.2870 -0.8249 -0.2116
  810SOL    HW2 2563   2.863   3.033   0.580  1.2870 -1.0506  2.2224
  811SOL     OW 2564   0.327   0.643   3.262 -0.2898 -0.2912 -0.3379
  811SOL    HW1 2565   0.390   0.580   3.228 -0.5737 -0.1507 -1.1596
  811SOL    HW2 2566   0.243   0.597   3.260 -0.1677 -0.6112  1.1209
  812SOL     OW 2567   2.775   3.472   2.612 -0.2393 -0.2444 -0.0727
  812SOL    HW1 2568   2.837   3.480   2.539 -0.8701  1.6319 -0.4668
  812SOL    HW2 2569   2.828   3.488   2.690 -0.2175  1.6214 -0.4248
  813SOL     OW 2570   1.655   1.437   1.273  0.1797  0.5681 -0.2807
  813SOL    HW1 2571   1.563   1.428   1.247  0.6548  1.0850 -2.2593
  813SOL    HW2 2572   1.661   1.526   1.308 -0.2717  0.1734  0.8514
  814SOL     OW 2573   0.354   3.625   3.289 -0.1958 -0.0394 -0.3896
  814SOL    HW1 2574   0.426   3.607   3.349 -0.3357  2.5031  0.6754
  814SOL    HW2 2575   0.285   3.661   3.345 -1.0241  0.7057 -1.8241
  815SOL     OW 2576   2.325   2.250   0.250  0.4350  0.4222 -0.7780
  815SOL    HW1 2577   2.279   2.215   0.173 -0.2188  2.7323 -1.5247
  815SOL    HW2 2578   2.312   2.184   0.317 -1.1250 -0.5566 -1.9521
  816SOL     OW 2579   3.687   0.049   3.172  0.6496 -0.2636 -0.2292
  816SOL    HW1 2580   3.706  -0.038   3.208 -0.2247 -0.0628  0.7928
  816SOL    HW2 2581   3.601   0.039   3.129  0.3407  0.1795  0.2705
  817SOL     OW 2582   1.625   3.020   0.080 -0.0996 -0.3495  0.1326
  817SOL    HW1 2583   1.640   3.111   0.108 -2.2199 -0.4032  1.7235
  817SOL    HW2 2584   1.547   3.025   0.024 -0.2779 -1.1902  0.2890
  818SOL     OW 2585   2.941   0.380   0.152 -0.2683 -0.7639  0.1785
  818SOL    HW1 2586   3.030   0.386   0.117  0.3621  1.7345  1.9788
  818SOL    HW2 2587   2.891   0.446   0.103 -0.1910  0.3822  1.5718
  819SOL     OW 2588   0.704   1.845   0.785  0.3458  0.0602 -0.5646
  819SOL    HW1 2589   0.648   1.899   0.729 -1.5165 -0.2036  0.9173
  819SOL    HW2 2590   0.763   1.907   0.827 -0.8949  0.8248  0.1268
  820SOL     OW 2591   2.651   3.219   0.362  0.1292  0.0185 -0.4517
  820SOL    HW1 2592   2.557   3.238   0.356 -0.5694 -2.4658  1.0587
  820SOL    HW2 2593   2.657   3.150   0.427  3.1607  0.7875  0.2330
  821SOL     OW 2594   2.542   1.382   2.410  0.1308  0.1539  0.0785
  821SOL    HW1 2595   2.452   1.349   2.401  0.7900 -1.2946 -2.0801
  821SOL    HW2 2596   2.532   1.477   2.417 -1.6177 -0.0715  1.4071
  822SOL     OW 2597   2.030   2.626   2.578  0.4429  0.0112 -0.6239
  822SOL    HW1 2598   1.952   2.670   2.611  0.9674  0.0324  0.6125
  822SOL    HW2 2599   2.102   2.685   2.599  0.8533 -0.1894 -1.4119
  823SOL     OW 2600   1.034   1.515   0.175 -0.2397  0.0959  0.7254
  823SOL    HW1 2601   1.116   1.559   0.153 -0.6418  0.5436  0.0780
  823SOL    HW2 2602   0.967   1.581   0.160 -1.0610 -1.2141 -2.0855
  824SOL     OW 2603   2.616   1.151   1.624 -0.5286 -0.1748 -0.0561
  824SOL    HW1 2604   2.543   1.092   1.601  1.5909 -2.9281 -0.2572
  824SOL    HW2 2605   2.634   1.130   1.716  0.7953 -0.4822 -0.3731
  825SOL     OW 2606   2.207   0.282   1.039 -0.0773  0.3405  0.3487
  825SOL    HW1 2607   2.278   0.325   0.991  0.3808  1.0393  1.5988
  825SOL    HW2 2608   2.252   0.234   1.109 -0.8205  0.6096  1.0172
  826SOL     OW 2609   0.835   3.292   1.021  0.6092  0.5284  0.1435
  826SOL    HW1 2610   0.887   3.217   1.050  1.7042  1.1925 -0.0729
  826SOL    HW2 2611   0.897   3.364   1.013 -0.3359  1.3406 -0.1564
  827SOL     OW 2612   2.465   0.493   3.385  0.5058 -0.0053  0.4448
  827SOL    HW1 2613   2.533   0.514   3.321 -0.7873  1.3062 -0.5460
  827SOL    HW2 2614   2.434   0.406   3.359  0.2663  0.3448 -0.4772
  828SOL     OW 2615   1.639   3.112   2.652  0.1070 -0.3756  0.4404
  828SOL    HW1 2616   1.581   3.172   2.699 -1.2604 -2.2607  1.3049
  828SOL    HW2 2617   1.583   3.039   2.627  1.2178 -0.3464 -2.5236
  829SOL     OW 2618   2.523   2.887   1.505  0.8022 -0.6496 -0.4435
  829SOL    HW1 2619   2.484   2.808   1.468  0.0502 -2.1708  3.1950
  829SOL    HW2 2620   2.455   2.923   1.561  0.9376  3.0370 -2.3411
  830SOL     OW 2621   3.350   2.253   1.120 -1.2433  0.2241  0.1559
  830SOL    HW1 2622   3.328   2.330   1.173 -2.0874  1.3130 -1.6821
  830SOL    HW2 2623   3.266   2.221   1.088 -0.9994 -2.1261  1.6933
  831SOL     OW 2624   2.147   0.849   2.305 -0.2927  0.3216 -0.2472
  831SOL    HW1 2625   2.189   0.772   2.343 -2.3927 -0.6455  0.2721
  831SOL    HW2 2626   2.186   0.857   2.218  3.1086  1.3410  1.2219
  832SOL     OW 2627   0.329   0.805   2.803 -0.3086  0.4326 -0.0390
  832SOL    HW1 2628   0.308   0.715   2.775 -2.4696  0.8433  0.0652
  832SOL    HW2 2629   0.267   0.823   2.874  0.3354  1.8929  0.1872
  833SOL     OW 2630   0.115   0.446   1.347  0.2449  0.2704 -0.2103
  833SOL    HW1 2631   0.127   0.513   1.280 -0.7637  0.5395 -0.1403
  833SOL    HW2 2632   0.136   0.364   1.303  1.5171  0.6263 -0.2896
  834SOL     OW 2633   2.983   1.485   0.188  0.6859  0.0723  0.4997
  834SOL    HW1 2634   3.051   1.494   0.122  0.8376 -1.0633  0.4804
  834SOL    HW2 2635   2.922   1.421   0.151 -0.9689  1.8156  0.0651
  835SOL     OW 2636   1.946   0.293   0.952 -0.1430  0.3663  0.3703
  835SOL    HW1 2637   1.886   0.245   1.009  0.4039  0.7171  1.2602
  835SOL    HW2 2638   2.003   0.341   1.012 -0.2527  1.6196 -0.4858
  836SOL     OW 2639   1.034   0.835   1.633  0.0216  0.3804 -0.4396
  836SOL    HW1 2640   1.013   0.829   1.726 -4.8476  1.6951 -1.1604
  836SOL    HW2 2641   1.081   0.918   1.624  1.8278 -0.4335  0.8990
  837SOL     OW 2642   0.081   2.080   2.456 -0.0865 -0.1940  0.1343
  837SOL    HW1 2643   0.127   1.997   2.444  1.4864  0.3977  1.6241
  837SOL    HW2 2644   0.077   2.091   2.551 -1.9372  0.5691  0.0084
  838SOL     OW 2645   1.267   0.934   3.483 -0.2482 -0.5209 -0.1776
  838SOL    HW1 2646   1.199   1.000   3.476 -0.1717  0.0095  3.0474
  838SOL    HW2 2647   1.231   0.867   3.540  0.9457 -1.6076 -0.6298
  839SOL     OW 2648   0.512   3.328   2.440  0.0247  0.0452 -0.4081
  839SOL    HW1 2649   0.429   3.347   2.485  0.3329 -0.9495  0.6347
  839SOL    HW2 2650   0.533   3.409   2.394 -0.8649  0.7515  0.3709
  840SOL     OW 2651   1.835   1.421   0.313 -0.3855  0.3470  0.0646
  840SOL    HW1 2652   1.788   1.443   0.394  0.1414  2.1599 -0.0908
  840SOL    HW2 2653   1.893   1.495   0.298  0.2908 -0.4490 -1.4290
  841SOL     OW 2654   3.060   0.407   3.346  0.1490  0.0957  0.1870
  841SOL    HW1 2655   3.090   0.411   3.437 -0.0137 -2.9964  0.5007
  841SOL    HW2 2656   2.978   0.456   3.346  0.6031  0.9240  1.4884
  842SOL     OW 2657   1.937   2.088   1.421 -0.2151  0.3585 -0.5224
  842SOL    HW1 2658   1.982   2.067   1.503 -0.5945  0.0805 -0.3813
  842SOL    HW2 2659   1.844   2.076   1.441 -0.2988  0.0972 -1.0476
  843SOL     OW 2660   1.852   0.871   2.016 -0.5488 -0.3475 -0.4889
  843SOL    HW1 2661   1.785   0.887   2.082  0.1612  0.9846 -0.0655
  843SOL    HW2 2662   1.870   0.957   1.979 -0.9355 -1.0553 -2.4553
  844SOL     OW 2663   2.512   2.461   1.206 -0.9639 -0.3117 -0.2987
  844SOL    HW1 2664   2.508   2.532   1.141 -0.4648  0.6321  0.6621
  844SOL    HW2 2665   2.422   2.450   1.236 -0.6431  2.5284  2.1965
  845SOL     OW 2666   2.167   1.580   2.560 -0.3190 -0.4195 -0.2611
  845SOL    HW1 2667   2.147   1.488   2.539 -3.3465  0.4186 -1.5337
  845SOL    HW2 2668   2.152   1.588   2.654 -0.4862 -1.1253 -0.2234
  846SOL     OW 2669   1.855   3.671   0.915 -0.4941 -0.2995 -0.1899
  846SOL    HW1 2670   1.828   3.704   1.001 -1.6837  1.8472 -1.2805
  846SOL    HW2 2671   1.779   3.621   0.884 -0.3260 -0.5085 -0.2653
  847SOL     OW 2672   2.520   2.231   0.759 -0.2348  0.0027 -0.3894
  847SOL    HW1 2673   2.568   2.313   0.771  1.3758 -1.2931  3.5945
  847SOL    HW2 2674   2.440   2.243   0.810  0.0806 -0.9084  0.3442
  848SOL     OW 2675   2.685   1.552   2.836 -0.0481 -0.5444  0.1067
  848SOL    HW1 2676   2.611   1.495   2.856 -1.0236  1.2935  2.2660
  848SOL    HW2 2677   2.727   1.512   2.760 -0.7812 -3.9347  1.3112
  849SOL     OW 2678   0.855   3.183   2.920  0.1566 -0.5741  0.0416
  849SOL    HW1 2679   0.935   3.134   2.902 -0.2189 -1.0939 -0.2490
  849SOL    HW2 2680   0.785   3.118   2.913 -0.3794  0.0590 -0.6283
  850SOL     OW 2681   3.597   1.061   1.659 -0.3414 -0.0450  0.7871
  850SOL    HW1 2682   3.642   1.009   1.725  0.0875  0.4794  0.9117
  850SOL    HW2 2683   3.541   0.998   1.613 -1.4895 -0.2272  2.3580
  851SOL     OW 2684   3.043   1.870   2.267  0.2684  0.3470  0.4937
  851SOL    HW1 2685   2.985   1.846   2.339 -1.6014  3.6360  0.2860
  851SOL    HW2 2686   2.995   1.845   2.188 -0.2992  1.7043  0.3631
  852SOL     OW 2687   1.219   2.597   0.172 -0.3550  0.5184 -0.8790
  852SOL    HW1 2688   1.181   2.526   0.225  0.9275  0.4265 -0.0306
  852SOL    HW2 2689   1.240   2.556   0.089  0.0083 -0.0021 -0.5348
  853SOL     OW 2690   1.844   3.491   0.545 -0.0930 -0.5189  0.1977
  853SOL    HW1 2691   1.878   3.404   0.523 -1.2079 -0.9557  0.1390
  853SOL    HW2 2692   1.759   3.474   0.585 -0.1451  0.5316  0.5641
  854SOL     OW 2693   0.052   0.818   2.323  0.3160 -0.1713  0.0214
  854SOL    HW1 2694   0.134   0.852   2.287  0.5665  1.5842  2.0397
  854SOL    HW2 2695   0.079   0.746   2.379  0.1663 -1.3332 -1.3552
  855SOL     OW 2696   0.895   0.601   2.535  0.0363 -0.1104 -0.3815
  855SOL    HW1 2697   0.936   0.686   2.516 -0.3487  0.1465 -0.0798
  855SOL    HW2 2698   0.888   0.559   2.450  3.3175 -1.2995 -0.2252
  856SOL     OW 2699   1.233   2.756   0.846  0.1402  0.3263 -0.2234
  856SOL    HW1 2700   1.296   2.727   0.780 -0.3980  1.4936 -1.3083
  856SOL    HW2 2701   1.149   2.754   0.801 -0.6302 -1.2382  1.2181
  857SOL     OW 2702   0.996   1.622   0.607 -0.1719  0.2060 -0.2709
  857SOL    HW1 2703   1.073   1.672   0.578 -0.0015 -0.1640 -0.4628
  857SOL    HW2 2704   0.996   1.633   0.702  1.8780 -2.2266  0.1200
  858SOL     OW 2705   0.477   1.742   0.898  0.6281 -0.1063  0.4557
  858SOL    HW1 2706   0.522   1.737   0.983 -0.0690  2.4347  1.0587
  858SOL    HW2 2707   0.542   1.782   0.840  0.1288  0.9945  0.6220
  859SOL     OW 2708   2.513   1.943   0.567  0.5403 -0.4743 -0.3601
  859SOL    HW1 2709   2.451   1.931   0.639 -2.1793  1.2132 -2.2299
  859SOL    HW2 2710   2.535   1.854   0.539  0.8485 -1.1404  1.8028
  860SOL     OW 2711   0.570   2.881   3.348  0.3036  0.5793 -0.2448
  860SOL    HW1 2712   0.585   2.789   3.330  0.1174  0.2284  1.2252
  860SOL    HW2 2713   0.658   2.920   3.347  0.6095 -0.0075  0.9656
  861SOL     OW 2714   1.595   3.345   0.861  0.1879 -0.3739 -0.6227
  861SOL    HW1 2715   1.613   3.374   0.950  0.2062  1.2433 -1.1216
  861SOL    HW2 2716   1.660   3.276   0.844 -1.9122 -3.1661  1.7214
  862SOL     OW 2717   3.158   0.491   3.746 -0.1407 -0.0160 -0.2491
  862SOL    HW1 2718   3.103   0.566   3.767 -1.3642 -0.8437 -0.3819
  862SOL    HW2 2719   3.206   0.517   3.667 -0.6948  0.5483 -0.4045
  863SOL     OW 2720   0.045   0.455   1.631  0.0316 -0.2208  0.2592
  863SOL    HW1 2721   0.056   0.461   1.536  1.1159  0.4478  0.4075
  863SOL    HW2 2722  -0.000   0.536   1.655 -0.0044 -0.2647  0.3393
  864SOL     OW 2723   3.308   0.557   3.519 -0.4009 -0.0285  0.2645
  864SOL    HW1 2724   3.324   0.596   3.433 -1.7666  1.4956  0.6538
  864SOL    HW2 2725   3.377   0.592   3.575  0.8791 -1.5257 -0.3056
  865SOL     OW 2726   1.716   1.198   2.513  0.0126 -0.0846 -0.2351
  865SOL    HW1 2727   1.787   1.262   2.521  1.4669 -1.2810 -2.3582
  865SOL    HW2 2728   1.658   1.235   2.446  0.7004 -0.7866 -1.2521
  866SOL     OW 2729   0.469   0.439   2.071  0.3985  0.1754 -0.1314
  866SOL    HW1 2730   0.537   0.430   2.004 -0.1585  0.3508 -0.7382
  866SOL    HW2 2731   0.430   0.352   2.076 -1.3258  0.7683 -1.9955
  867SOL     OW 2732   3.061   1.304   1.251 -0.2017  0.8955 -0.2512
  867SOL    HW1 2733   3.098   1.351   1.326 -0.2325  1.0282 -0.3200
  867SOL    HW2 2734   2.970   1.332   1.247 -0.6149 -0.2424  0.5803
  868SOL     OW 2735   1.058   0.418   0.122  0.4371 -0.3120  0.0320
  868SOL    HW1 2736   1.127   0.362   0.157 -0.2006 -1.1348  0.0036
  868SOL    HW2 2737   1.074   0.420   0.028  0.1827 -0.8580 -0.0292
  869SOL     OW 2738   0.883   0.179   2.747 -0.1538  0.0195  0.1798
  869SOL    HW1 2739   0.801   0.181   2.698 -0.8444  1.2542  1.3079
  869SOL    HW2 2740   0.908   0.087   2.749 -1.4704 -0.3664 -0.2567
  870SOL     OW 2741   0.585   2.300   3.237 -0.6628 -0.2962  0.4652
  870SOL    HW1 2742   0.600   2.224   3.181 -2.1693 -1.1068  1.1139
  870SOL    HW2 2743   0.549   2.367   3.178  1.3750  0.2555 -0.2648
  871SOL     OW 2744   3.625   3.003   3.671 -0.0207 -0.3040 -0.2208
  871SOL    HW1 2745   3.550   3.060   3.653 -1.3639 -1.2962  1.9271
  871SOL    HW2 2746   3.598   2.917   3.638 -1.4189 -1.5094  3.6158
  872SOL     OW 2747   3.541   0.093   0.715 -0.2825  0.3666  0.4556
  872SOL    HW1 2748   3.620   0.057   0.674 -0.6673  0.3869 -0.3161
  872SOL    HW2 2749   3.546   0.187   0.698 -0.5642  0.3446  0.2604
  873SOL     OW 2750   1.076   1.664   3.447 -0.4540  0.2617  0.0439
  873SOL    HW1 2751   1.124   1.675   3.365  0.2465 -0.2219  0.3800
  873SOL    HW2 2752   1.023   1.586   3.433 -0.3876  0.2200  0.0221
  874SOL     OW 2753   2.493   2.981   2.950 -0.3289  0.5678  1.1308
  874SOL    HW1 2754   2.552   2.915   2.913 -1.1082  0.1299  0.6367
  874SOL    HW2 2755   2.542   3.063   2.943 -0.6374  0.6248 -1.4563
  875SOL     OW 2756   2.677   0.578   0.192  0.0660  0.0214  0.1723
  875SOL    HW1 2757   2.656   0.553   0.102 -0.4093 -1.8435  0.7506
  875SOL    HW2 2758   2.597   0.559   0.242  0.5252  0.4149  1.0915
  876SOL     OW 2759   0.846   0.192   3.175 -0.2295 -0.3912 -0.2138
  876SOL    HW1 2760   0.891   0.109   3.185 -0.4990 -0.6515 -1.0274
  876SOL    HW2 2761   0.914   0.253   3.147 -0.1384 -0.4691 -0.1639
  877SOL     OW 2762   1.671   0.387   2.668 -0.0679 -0.5738 -0.0913
  877SOL    HW1 2763   1.645   0.451   2.601 -0.4861 -0.1632  0.4579
  877SOL    HW2 2764   1.753   0.351   2.635 -0.1340 -0.1847 -0.7023
  878SOL     OW 2765   2.770   0.969   1.413  0.1220 -0.5020 -0.3645
  878SOL    HW1 2766   2.707   0.980   1.483  0.5847 -1.4925  0.2286
  878SOL    HW2 2767   2.839   1.033   1.432  0.0101 -0.4366 -0.1826
  879SOL     OW 2768   0.960   2.017   2.460  0.1434 -0.1034  0.0381
  879SOL    HW1 2769   1.032   2.008   2.523  2.6417  2.7502 -2.1295
  879SOL    HW2 2770   0.963   1.936   2.409 -0.2010 -1.2987  1.8254
  880SOL     OW 2771   2.167   2.575   0.745  0.5727  0.0197  0.0798
  880SOL    HW1 2772   2.222   2.653   0.748 -0.2329  0.5823  0.5847
  880SOL    HW2 2773   2.219   2.512   0.695  0.9500  1.1081 -0.9825
  881SOL     OW 2774   2.025   1.118   1.925  0.2196  0.6756 -0.0326
  881SOL    HW1 2775   2.073   1.201   1.919  1.1049  0.2280  0.5916
  881SOL    HW2 2776   1.979   1.110   1.842  1.0173  1.2524 -0.5371
  882SOL     OW 2777   2.633   0.232   2.372  0.5509  0.5678  0.6134
  882SOL    HW1 2778   2.662   0.155   2.421 -0.4978  0.4099  1.0057
  882SOL    HW2 2779   2.691   0.302   2.402 -0.8997  0.8096  3.1533
  883SOL     OW 2780   2.410   2.529   3.241  0.2798 -0.1170 -0.2051
  883SOL    HW1 2781   2.373   2.609   3.278  1.2340 -0.7209  2.2869
  883SOL    HW2 2782   2.485   2.559   3.189  0.6377  0.6569  0.7084
  884SOL     OW 2783   0.089   1.117   2.461  0.2903 -0.3753  0.1199
  884SOL    HW1 2784   0.092   1.029   2.500  1.4839  0.1414  1.2464
  884SOL    HW2 2785   0.168   1.121   2.407  0.1516 -0.0339 -0.0594
  885SOL     OW 2786   0.124   3.216   2.975  0.4013 -0.1516  0.2961
  885SOL    HW1 2787   0.034   3.201   3.006  0.0630  1.9073  0.4233
  885SOL    HW2 2788   0.179   3.170   3.039 -0.5221 -0.8633  0.6016
  886SOL     OW 2789   2.929   0.075   1.444 -0.0877 -0.3743  0.4158
  886SOL    HW1 2790   2.892   0.025   1.516  0.9252  0.3872  1.5046
  886SOL    HW2 2791   2.934   0.165   1.477  0.4031 -0.0119 -0.5928
  887SOL     OW 2792   3.423   2.228   2.724  0.5565  0.3533  0.0106
  887SOL    HW1 2793   3.346   2.192   2.767 -1.1042  0.4662 -2.6563
  887SOL    HW2 2794   3.403   2.322   2.714  1.0497  0.4007 -0.6216
  888SOL     OW 2795   0.213   3.026   1.837  0.5012  0.0377 -0.1536
  888SOL    HW1 2796   0.258   2.962   1.781 -1.6406 -1.2453 -0.5087
  888SOL    HW2 2797   0.132   3.046   1.791 -0.5932  0.1556  1.7288
  889SOL     OW 2798   3.647   0.734   0.849 -0.0952 -0.0752  0.6208
  889SOL    HW1 2799   3.731   0.773   0.826  0.0559 -0.1325  1.0844
  889SOL    HW2 2800   3.608   0.795   0.912 -1.4243  1.1690 -1.2500
  890SOL     OW 2801   2.966   1.563   0.832 -0.0529  0.0922 -0.3789
  890SOL    HW1 2802   2.879   1.567   0.793 -0.4045 -1.1066  0.2248
  890SOL    HW2 2803   2.952   1.527   0.919  1.0824 -0.4586 -0.3975
  891SOL     OW 2804   0.762   2.298   2.807  0.8172 -0.4262 -0.0293
  891SOL    HW1 2805   0.786   2.385   2.840 -0.1084  0.1641 -0.8801
  891SOL    HW2 2806   0.705   2.315   2.732 -0.0126 -1.7697  0.2593
  892SOL     OW 2807   2.273   3.415   0.517  0.2876 -0.0938 -0.1785
  892SOL    HW1 2808   2.240   3.504   0.531  2.2171  0.9634 -1.9219
  892SOL    HW2 2809   2.340   3.403   0.584 -0.8429 -0.7845  0.8816
  893SOL     OW 2810   0.793   0.498   1.460  0.4063 -0.3044 -0.0694
  893SOL    HW1 2811   0.836   0.485   1.545 -0.9139 -0.9995  0.5170
  893SOL    HW2 2812   0.772   0.410   1.430  0.8045 -0.0617 -1.1124
  894SOL     OW 2813   1.581   3.737   0.738  0.6500 -0.0107  0.6619
  894SOL    HW1 2814   1.551   3.777   0.656  0.8627  3.0584  1.9443
  894SOL    HW2 2815   1.592   3.644   0.717 -2.8240 -0.0642 -1.7943
  895SOL     OW 2816   1.221   0.276   3.112 -0.2048 -0.8574  0.2163
  895SOL    HW1 2817   1.165   0.287   3.036 -1.6025 -1.9044  1.0449
  895SOL    HW2 2818   1.309   0.294   3.080 -1.0705  1.8556 -0.9063
  896SOL     OW 2819   2.966   1.468   0.461 -0.2786  0.1696  0.0003
  896SOL    HW1 2820   2.971   1.459   0.366  1.1298  0.3778  0.0293
  896SOL    HW2 2821   3.031   1.406   0.494 -2.3952 -1.6540  0.9650
  897SOL     OW 2822   1.275   2.934   3.713 -0.2520  0.0837  0.2480
  897SOL    HW1 2823   1.321   2.996   3.656  1.4854 -1.2158  0.1651
  897SOL    HW2 2824   1.309   2.951   3.800  0.4484 -0.9017  0.1834
  898SOL     OW 2825   2.280   3.593   2.125 -0.3724 -0.4973  0.3425
  898SOL    HW1 2826   2.320   3.573   2.041  0.2748 -1.4691  0.8715
  898SOL    HW2 2827   2.323   3.673   2.154 -1.0698  0.2232 -0.5371
  899SOL     OW 2828   0.750   2.067   1.998 -0.4545  1.1708 -0.1453
  899SOL    HW1 2829   0.819   2.016   2.040 -1.2685 -1.7797 -2.0640
  899SOL    HW2 2830   0.794   2.112   1.926 -0.1013  1.3550  0.1829
  900SOL     OW 2831   0.381   3.595   0.710  0.5184  0.9798  0.2150
  900SOL    HW1 2832   0.333   3.677   0.720 -1.9031 -0.2657 -0.1751
  900SOL    HW2 2833   0.421   3.601   0.623  0.4637  1.7988  0.2388
  901SOL     OW 2834   0.577   2.307   0.767  0.1191  0.2949 -0.0885
  901SOL    HW1 2835   0.568   2.315   0.861 -1.4768  0.5055 -0.2376
  901SOL    HW2 2836   0.628   2.384   0.741 -1.4959  1.5533  0.3406
  902SOL     OW 2837   2.759   1.517   0.664 -0.3449 -0.1528 -0.4935
  902SOL    HW1 2838   2.740   1.595   0.612 -1.2547 -0.4988 -0.7055
  902SOL    HW2 2839   2.804   1.458   0.603  1.4458  0.6526 -0.0025
  903SOL     OW 2840   0.740   1.028   3.398  0.7672 -0.0379  0.6121
  903SOL    HW1 2841   0.660   0.992   3.437  1.9007 -1.4747  1.7400
  903SOL    HW2 2842   0.719   1.119   3.379 -1.3560 -0.5664  0.2237
  904SOL     OW 2843   0.934   0.775   3.379 -0.4298 -0.2006  0.0435
  904SOL    HW1 2844   1.014   0.725   3.364  0.1633  0.7172  0.0664
  904SOL    HW2 2845   0.953   0.826   3.458 -1.2265 -0.3547  0.3395
  905SOL     OW 2846   1.285   2.161   0.937  0.0557  0.5932  0.0517
  905SOL    HW1 2847   1.345   2.098   0.977  0.4371  1.2203  0.4774
  905SOL    HW2 2848   1.213   2.169   1.000 -0.2302  0.2326 -0.2215
  906SOL     OW 2849   0.206   1.058   1.102  0.2379  0.2957 -0.4712
  906SOL    HW1 2850   0.146   1.010   1.159  0.9973  0.3086  0.3594
  906SOL    HW2 2851   0.253   1.117   1.162  0.1873  1.1881 -1.2938
  907SOL     OW 2852   0.190   1.837   2.469 -0.3330 -0.3255  0.2163
  907SOL    HW1 2853   0.265   1.816   2.415 -1.1991 -1.1773 -0.6940
  907SOL    HW2 2854   0.141   1.754   2.477 -0.9737  0.1125  1.1027
  908SOL     OW 2855   3.014   1.927   0.311 -0.3753 -0.1125 -0.1542
  908SOL    HW1 2856   2.987   2.011   0.347 -1.9915 -1.4315  2.0210
  908SOL    HW2 2857   3.031   1.872   0.388  2.2843 -1.3501 -1.4774
  909SOL     OW 2858   1.503   2.072   2.431  0.3644  0.2819 -0.1247
  909SOL    HW1 2859   1.594   2.064   2.461  1.0303  1.5701 -1.6543
  909SOL    HW2 2860   1.480   2.162   2.449 -0.1834  0.2948 -0.8806
  910SOL     OW 2861   2.888   1.093   2.299 -0.3209  0.2887  0.1497
  910SOL    HW1 2862   2.860   1.014   2.254  1.3892 -1.3138  1.7443
  910SOL    HW2 2863   2.979   1.105   2.273 -0.9202  2.6472 -1.1927
  911SOL     OW 2864   1.902   2.600   0.850 -0.0842  0.5455 -0.5350
  911SOL    HW1 2865   1.983   2.593   0.801  1.0075  2.9670  0.7493
  911SOL    HW2 2866   1.860   2.680   0.816 -1.4432 -0.1027 -0.4682
  912SOL     OW 2867   2.730   1.596   2.468  0.5403  0.3152 -0.3878
  912SOL    HW1 2868   2.716   1.667   2.531 -2.1098 -0.7299  0.3450
  912SOL    HW2 2869   2.680   1.624   2.391  0.7581 -0.0663 -0.6671
  913SOL     OW 2870   3.415   1.944   2.382  0.4271  0.6560  0.7354
  913SOL    HW1 2871   3.356   1.955   2.307  0.9621 -1.3988 -0.0505
  913SOL    HW2 2872   3.433   2.034   2.411  0.0945  1.5380 -1.5299
  914SOL     OW 2873   3.635   3.158   2.100  0.1326  0.2529  0.1874
  914SOL    HW1 2874   3.627   3.064   2.086  0.9259  0.2849 -0.5494
  914SOL    HW2 2875   3.609   3.171   2.191  3.0722 -1.0878  1.3308
  915SOL     OW 2876   0.928   0.447   1.200  0.2142 -0.0816  0.1983
  915SOL    HW1 2877   0.890   0.420   1.283  0.2273  0.9497  0.5573
  915SOL    HW2 2878   0.867   0.416   1.134 -0.4489  0.1903  0.6773
  916SOL     OW 2879   3.342   1.770   3.410 -0.0480  0.0793  0.5219
  916SOL    HW1 2880   3.330   1.676   3.400  0.0993 -0.1004  1.8373
  916SOL    HW2 2881   3.325   1.787   3.503  0.4596  1.2655  0.4228
  917SOL     OW 2882   2.927   2.656   2.822 -0.6678  0.0634 -0.1450
  917SOL    HW1 2883   3.018   2.684   2.809 -0.7657  1.2146  1.3449
  917SOL    HW2 2884   2.930   2.561   2.815  0.2777  0.1846 -2.1343
  918SOL     OW 2885   1.563   3.004   0.988 -0.5550 -0.5094 -0.1612
  918SOL    HW1 2886   1.470   3.025   0.982 -0.3253  1.0331  0.8948
  918SOL    HW2 2887   1.577   2.985   1.081  0.3238  0.0892 -0.1571
  919SOL     OW 2888   2.759   3.022   2.912 -1.1351  0.1940 -0.2735
  919SOL    HW1 2889   2.788   3.010   2.822  0.6110 -0.9372  0.3879
  919SOL    HW2 2890   2.765   3.117   2.926  2.3224  0.0951 -0.2514
  920SOL     OW 2891   0.636   1.860   2.131  0.3909 -0.1544 -0.3538
  920SOL    HW1 2892   0.648   1.795   2.062  0.8338 -0.5129  0.0528
  920SOL    HW2 2893   0.662   1.943   2.091  3.0624 -0.6931  0.0600
  921SOL     OW 2894   3.277   1.859   1.823  0.5778 -0.6754 -0.1701
  921SOL    HW1 2895   3.237   1.932   1.775 -0.1924 -1.2513 -0.4183
  921SOL    HW2 2896   3.301   1.897   1.907 -0.0575 -0.1832 -0.1964
  922SOL     OW 2897   3.721   2.444   0.898  0.1196  0.7157  0.2863
  922SOL    HW1 2898   3.785   2.392   0.849 -0.9171  1.1870 -1.6598
  922SOL    HW2 2899   3.636   2.405   0.877 -0.5162  2.0911  0.1708
  923SOL     OW 2900   0.425   1.002   0.206  0.0422  0.2912 -0.5970
  923SOL    HW1 2901   0.356   0.966   0.262  0.8421  2.0189  1.6623
  923SOL    HW2 2902   0.384   1.012   0.120 -2.3085  0.6200  0.4946
  924SOL     OW 2903   0.225   0.272   0.102 -0.7477  0.4841 -0.2312
  924SOL    HW1 2904   0.277   0.193   0.114 -2.0752 -0.8329 -2.6192
  924SOL    HW2 2905   0.248   0.326   0.178  1.0487 -1.6671  0.8959
  925SOL     OW 2906   3.122   2.788   1.087 -0.0223  0.4918 -0.0985
  925SOL    HW1 2907   3.189   2.851   1.114 -0.5156  0.7038  0.6733
  925SOL    HW2 2908   3.129   2.717   1.149  1.8739 -1.2368 -2.1330
  926SOL     OW 2909   2.911   0.297   1.602  0.0402  0.1150  0.1680
  926SOL    HW1 2910   2.815   0.297   1.609 -0.0496  2.9621  0.1366
  926SOL    HW2 2911   2.941   0.293   1.693  0.1359 -4.2451  0.1680
  927SOL     OW 2912   3.649   3.413   2.478 -0.3088 -0.5418  0.3814
  927SOL    HW1 2913   3.673   3.410   2.571  0.2348  2.5335  0.4286
  927SOL    HW2 2914   3.732   3.401   2.432 -0.3132 -0.3588  0.3255
  928SOL     OW 2915   1.165   1.521   1.005  0.6569 -0.3842  0.0083
  928SOL    HW1 2916   1.244   1.549   1.051  0.6810  1.6615 -1.1375
  928SOL    HW2 2917   1.197   1.475   0.928  0.7996  0.9005 -0.7323
  929SOL     OW 2918   3.273   0.054   1.408  0.7081  0.1810 -0.1123
  929SOL    HW1 2919   3.187   0.082   1.440  1.1319 -0.6797  1.9519
  929SOL    HW2 2920   3.254  -0.004   1.334 -0.3852  1.3503 -0.7794
  930SOL     OW 2921   1.450   1.112   3.219  0.1144  0.0238  0.0310
  930SOL    HW1 2922   1.467   1.090   3.311  1.3657 -0.8110 -0.3747
  930SOL    HW2 2923   1.532   1.152   3.189  0.4950 -1.6233 -1.2663
  931SOL     OW 2924   1.309   3.228   3.211  0.3182 -0.0515  0.0076
  931SOL    HW1 2925   1.287   3.309   3.257  1.5076 -0.3031  1.0605
  931SOL    HW2 2926   1.272   3.159   3.266 -1.4249 -0.2363 -1.3093
  932SOL     OW 2927   2.464   2.226   2.740 -0.1527  0.0270 -0.7515
  932SOL    HW1 2928   2.521   2.160   2.702 -2.2970 -1.8645 -0.9072
  932SOL    HW2 2929   2.481   2.222   2.834  2.3887  1.9813 -1.0428
  933SOL     OW 2930   0.137   0.515   2.109  0.5046  0.0879  0.6198
  933SOL    HW1 2931   0.084   0.487   2.033 -2.5180  0.1500  2.5341
  933SOL    HW2 2932   0.189   0.588   2.076 -1.6018  0.9062 -1.1627
  934SOL     OW 2933   0.178   0.990   1.950  0.5593 -0.3234 -0.0194
  934SOL    HW1 2934   0.213   1.079   1.938  1.5745 -0.3344  2.2618
  934SOL    HW2 2935   0.199   0.945   1.869  5.3360 -0.0654  0.7534
  935SOL     OW 2936   2.070   0.370   0.349 -0.0400 -0.8434  0.1334
  935SOL    HW1 2937   2.068   0.285   0.306  0.4139 -1.3818  1.1404
  935SOL    HW2 2938   2.082   0.433   0.278 -2.0578 -1.4534 -0.8196
  936SOL     OW 2939   3.411   0.696   3.292  0.5588  0.3154 -0.3347
  936SOL    HW1 2940   3.397   0.787   3.316  0.5866  0.8134 -2.0955
  936SOL    HW2 2941   3.472   0.699   3.218  0.5082 -1.1232 -0.4752
  937SOL     OW 2942   2.566   1.239   1.102 -0.6374 -0.3345 -0.1016
  937SOL    HW1 2943   2.547   1.240   1.195  2.8658  0.7148  0.7621
  937SOL    HW2 2944   2.637   1.175   1.092 -2.3041 -2.0015 -2.4822
  938SOL     OW 2945   1.995   1.911   2.253 -1.0112 -0.3917  0.0615
  938SOL    HW1 2946   1.970   2.000   2.281 -0.4572 -0.2276  0.0389
  938SOL    HW2 2947   1.951   1.854   2.316  0.5040 -0.0188  1.5312
  939SOL     OW 2948   0.163   2.808   0.733 -0.4190 -0.2517  0.4455
  939SOL    HW1 2949   0.239   2.749   0.728 -1.1605 -1.3277  1.3021
  939SOL    HW2 2950   0.092   2.759   0.692 -0.8730  0.3580  0.4988
  940SOL     OW 2951   1.819   2.307   0.820  0.0081  0.4654  0.2378
  940SOL    HW1 2952   1.760   2.260   0.880  0.5854  1.3339  1.5528
  940SOL    HW2 2953   1.849   2.383   0.872  0.0391  1.6125 -1.3871
  941SOL     OW 2954   3.599   0.717   3.089  0.3739  0.1120 -0.0658
  941SOL    HW1 2955   3.564   0.722   3.000 -0.4693 -0.6938  0.2109
  941SOL    HW2 2956   3.648   0.635   3.091  0.9209  0.4328  0.0401
  942SOL     OW 2957   2.258   0.222   3.398  0.2887  0.0257  0.5132
  942SOL    HW1 2958   2.180   0.197   3.447  0.5143  0.1110  0.9254
  942SOL    HW2 2959   2.254   0.169   3.318  0.5293 -1.0150  1.1659
  943SOL     OW 2960   1.828   1.052   3.445  0.0982  0.2670  0.0342
  943SOL    HW1 2961   1.738   1.019   3.437  0.1537 -0.2682  1.3541
  943SOL    HW2 2962   1.842   1.061   3.539  2.1337 -1.7080  0.0073
  944SOL     OW 2963   1.789   1.925   1.741  0.2464 -0.2685  0.2199
  944SOL    HW1 2964   1.874   1.896   1.708 -0.6731 -1.1966 -1.4733
  944SOL    HW2 2965   1.756   1.850   1.791  1.3142  0.8759  2.8593
  945SOL     OW 2966   3.234   1.641   2.084  0.2604 -0.4429 -0.3847
  945SOL    HW1 2967   3.175   1.637   2.009  0.9676  0.1838 -0.9977
  945SOL    HW2 2968   3.178   1.627   2.160 -0.8891  1.3040 -0.8520
  946SOL     OW 2969   3.284   2.971   2.889  0.0068 -0.9145 -0.0311
  946SOL    HW1 2970   3.200   2.944   2.923 -0.1431 -0.8526 -0.3438
  946SOL    HW2 2971   3.304   3.052   2.936 -0.8075 -0.1268 -0.9955
  947SOL     OW 2972   1.620   2.667   3.251 -0.6181 -0.2871 -0.2586
  947SOL    HW1 2973   1.707   2.631   3.232 -0.6040 -0.2748 -0.2165
  947SOL    HW2 2974   1.619   2.680   3.346 -1.0161 -1.2140 -0.1228
  948SOL     OW 2975   0.674   0.950   1.800 -0.5575  0.0650  0.0757
  948SOL    HW1 2976   0.651   1.028   1.850  0.7357  1.0829 -0.8519
  948SOL    HW2 2977   0.710   0.890   1.865 -0.5533  0.6575  0.6366
  949SOL     OW 2978   0.835   0.058   1.450 -0.0089  0.2777 -0.2373
  949SOL    HW1 2979   0.903   0.125   1.442 -0.8471  1.0428 -1.2811
  949SOL    HW2 2980   0.762   0.093   1.399 -0.0401 -2.0015 -1.8617
  950SOL     OW 2981   3.499   2.168   2.481  0.1175 -0.0655 -0.6153
  950SOL    HW1 2982   3.589   2.151   2.507  0.0507 -0.7684 -0.8410
  950SOL    HW2 2983   3.457   2.202   2.560  0.0488 -1.7040  0.0936
  951SOL     OW 2984   0.325   3.545   3.031  0.2473 -0.0439  0.1247
  951SOL    HW1 2985   0.324   3.587   3.117 -0.0821  1.8119 -0.7191
  951SOL    HW2 2986   0.239   3.564   2.994  0.2481 -1.1381 -0.4754
  952SOL     OW 2987   3.515   1.276   3.723 -0.2161 -0.1605  0.0043
  952SOL    HW1 2988   3.610   1.262   3.724 -0.3110 -0.8924 -0.3134
  952SOL    HW2 2989   3.503   1.358   3.675  0.3933  1.2825  2.1972
  953SOL     OW 2990   2.053   0.891   0.006  0.3970  0.4771  0.3128
  953SOL    HW1 2991   2.081   0.855   0.090  2.1924  0.0293 -0.4194
  953SOL    HW2 2992   2.067   0.820  -0.056 -0.1294  1.0618 -0.4995
  954SOL     OW 2993   1.505   3.586   2.837  0.3189  0.8367 -0.2150
  954SOL    HW1 2994   1.414   3.607   2.817  0.2835 -0.8137 -2.1890
  954SOL    HW2 2995   1.500   3.509   2.894  0.4712  0.9168 -0.0939
  955SOL     OW 2996   3.655   2.936   0.671  0.0353  0.0212 -0.0407
  955SOL    HW1 2997   3.622   2.942   0.581 -0.7348 -0.3978  0.1993
  955SOL    HW2 2998   3.585   2.975   0.724 -0.8023 -2.2318  0.6287
  956SOL     OW 2999   1.922   1.731   1.629  0.2595  0.3043 -0.0723
  956SOL    HW1 3000   2.011   1.711   1.660  0.1013  1.9093  1.5461
  956SOL    HW2 3001   1.869   1.658   1.660  0.4767  0.9044  1.7945
  957SOL     OW 3002   1.569   2.583   2.934  0.7835  0.0197 -0.4366
  957SOL    HW1 3003   1.567   2.547   3.023 -1.4044 -0.3656 -0.5777
  957SOL    HW2 3004   1.660   2.571   2.905  0.8199 -2.9931  0.5189
  958SOL     OW 3005   0.119   1.838   1.941 -0.3962 -0.4503  0.6284
  958SOL    HW1 3006   0.026   1.829   1.922  0.0473 -2.0398 -1.0851
  958SOL    HW2 3007   0.161   1.832   1.855  1.2202  1.6273  1.2202
  959SOL     OW 3008   0.627   0.881   0.541 -0.0691  0.4665  0.4471
  959SOL    HW1 3009   0.646   0.969   0.574  1.4328  0.3546 -0.0436
  959SOL    HW2 3010   0.559   0.848   0.599  0.3655  1.4238  1.5402
  960SOL     OW 3011   1.082   2.845   0.178  0.0154  0.0257 -0.4766
  960SOL    HW1 3012   1.022   2.829   0.105  1.1505  2.2358 -1.9862
  960SOL    HW2 3013   1.133   2.765   0.186 -0.8103 -0.6164 -1.4413
  961SOL     OW 3014   0.790   1.397   2.809 -0.0083  0.6927  0.0905
  961SOL    HW1 3015   0.793   1.315   2.759 -2.7732  1.3414 -1.3587
  961SOL    HW2 3016   0.846   1.382   2.884  1.0012 -1.8682 -1.0690
  962SOL     OW 3017   1.531   0.713   0.667  0.0556  0.5499 -0.2040
  962SOL    HW1 3018   1.591   0.781   0.637  1.2145 -0.1714  0.3557
  962SOL    HW2 3019   1.585   0.633   0.667 -1.0544 -0.2244 -0.1360
  963SOL     OW 3020   0.542   2.305   2.402  0.0163 -0.0336  0.4188
  963SOL    HW1 3021   0.630   2.277   2.377  0.4309  0.1546  1.6238
  963SOL    HW2 3022   0.484   2.242   2.360  0.8801 -2.3187  2.4801
  964SOL     OW 3023   0.263   1.242   1.898 -0.3518  0.2963  0.6277
  964SOL    HW1 3024   0.349   1.254   1.858 -0.0153 -0.7374  1.0080
  964SOL    HW2 3025   0.250   1.321   1.950 -0.3028  1.1418 -0.6066
  965SOL     OW 3026   0.503   2.349   0.366  0.4608  0.0439 -0.1808
  965SOL    HW1 3027   0.552   2.415   0.316  0.6423 -0.0940 -0.1852
  965SOL    HW2 3028   0.544   2.266   0.342  2.1891  0.1620  2.0544
  966SOL     OW 3029   1.358   3.495   0.600  0.8419  0.5114  0.5262
  966SOL    HW1 3030   1.269   3.485   0.566  0.3214  0.2154  1.9077
  966SOL    HW2 3031   1.349   3.554   0.675  1.8248  0.5516  0.6236
  967SOL     OW 3032   2.043   3.263   0.507  0.5106  1.1526  0.7303
  967SOL    HW1 3033   2.127   3.307   0.501  0.5893  0.8102 -3.0047
  967SOL    HW2 3034   2.056   3.194   0.573  3.8221 -0.1368 -1.0737
  968SOL     OW 3035   0.691   1.894   2.390 -0.5661 -0.8053 -0.4019
  968SOL    HW1 3036   0.744   1.826   2.430  1.8292 -0.5773 -2.8960
  968SOL    HW2 3037   0.674   1.863   2.301 -2.1774  0.4663 -0.5954
  969SOL     OW 3038   3.302   3.131   1.903  0.1150  0.2783 -0.3758
  969SOL    HW1 3039   3.253   3.093   1.976  0.2597 -1.3011 -1.0638
  969SOL    HW2 3040   3.382   3.165   1.943 -0.6760  1.2547  0.4758
  970SOL     OW 3041   1.944   2.634   0.534 -0.0630  0.3545 -0.0411
  970SOL    HW1 3042   2.034   2.621   0.564 -0.5141  1.6046  2.0201
  970SOL    HW2 3043   1.952   2.698   0.463  0.7824 -0.7408 -0.9851
  971SOL     OW 3044   1.595   0.460   3.427 -0.7244  0.1882 -0.7510
  971SOL    HW1 3045   1.521   0.515   3.452  1.1296  1.9145  1.4623
  971SOL    HW2 3046   1.635   0.505   3.353 -2.0356 -0.9810 -2.2399
  972SOL     OW 3047   1.487   0.027   2.014  0.0868  0.3794 -0.1974
  972SOL    HW1 3048   1.457   0.113   2.042 -0.8318 -0.0949  0.3321
  972SOL    HW2 3049   1.539  -0.006   2.088 -0.8511 -0.1413  0.2471
  973SOL     OW 3050   1.764   2.552   0.317 -0.0964  0.5552 -0.9615
  973SOL    HW1 3051   1.812   2.632   0.338 -0.0259  0.2771  0.0093
  973SOL    HW2 3052   1.819   2.507   0.253  0.6052  0.5825 -0.3937
  974SOL     OW 3053   1.080   3.144   1.099  0.1146 -0.1719 -0.4497
  974SOL    HW1 3054   1.151   3.090   1.063  0.2694  0.3115 -0.8851
  974SOL    HW2 3055   1.104   3.159   1.190  0.3472 -0.3735 -0.4770
  975SOL     OW 3056   2.253   3.228   1.130  0.7058  0.1161  0.3161
  975SOL    HW1 3057   2.328   3.284   1.147 -0.9997  2.0725  1.8669
  975SOL    HW2 3058   2.241   3.178   1.211  1.2432 -1.4009 -0.4937
  976SOL     OW 3059   0.696   2.450   2.574 -0.2703 -0.6448  0.1211
  976SOL    HW1 3060   0.665   2.386   2.510 -1.3963 -0.4940  0.4964
  976SOL    HW2 3061   0.752   2.509   2.525 -0.4571 -1.0191 -0.5479
  977SOL     OW 3062   2.071   3.031   0.688 -0.4418 -0.6069  0.2175
  977SOL    HW1 3063   2.156   3.008   0.650  0.5915  1.6375  0.9815
  977SOL    HW2 3064   2.092   3.056   0.778 -2.1768 -1.4474  0.8984
  978SOL     OW 3065   1.470   3.313   2.705  0.4021  0.6403  0.3503
  978SOL    HW1 3066   1.452   3.356   2.622 -0.5849  1.8852  1.1749
  978SOL    HW2 3067   1.385   3.283   2.736  1.0179 -1.8653 -0.1114
  979SOL     OW 3068   1.439   0.985   2.985 -0.0860 -0.0114  0.0137
  979SOL    HW1 3069   1.446   1.054   3.051 -3.2704  0.2591  0.2311
  979SOL    HW2 3070   1.405   1.030   2.907  2.0903 -0.6153 -1.3847
  980SOL     OW 3071   1.264   2.697   2.270  1.1981  0.2905 -0.2370
  980SOL    HW1 3072   1.330   2.695   2.340  2.3387  1.7408 -1.2247
  980SOL    HW2 3073   1.197   2.634   2.299  1.9422  0.3731  1.8319
  981SOL     OW 3074   1.289   0.222   0.789  0.1159  0.4703 -0.6225
  981SOL    HW1 3075   1.229   0.219   0.864 -0.3567  1.1691 -0.9639
  981SOL    HW2 3076   1.272   0.307   0.748  1.7883  0.9731 -0.3543
  982SOL     OW 3077   2.423   1.190   0.235  0.0008 -0.7163 -0.3505
  982SOL    HW1 3078   2.427   1.162   0.326 -1.7721 -1.1162 -0.3611
  982SOL    HW2 3079   2.468   1.121   0.187  0.8877 -0.5343  0.1956
  983SOL     OW 3080   2.030   3.642   1.997  0.1476  0.2420  0.3297
  983SOL    HW1 3081   1.979   3.562   1.998 -0.6054  0.7089 -0.1292
  983SOL    HW2 3082   2.120   3.613   2.013 -0.2859 -0.5517  1.4825
  984SOL     OW 3083   1.123   1.764   2.907 -0.2550 -0.4378  0.1458
  984SOL    HW1 3084   1.055   1.702   2.931 -0.1611 -0.1937  1.1007
  984SOL    HW2 3085   1.079   1.849   2.908  0.0657 -0.2728  0.8214
  985SOL     OW 3086   2.854   3.695   0.147 -0.3722 -0.0812 -0.8133
  985SOL    HW1 3087   2.808   3.775   0.121  1.1333  1.8606  1.9001
  985SOL    HW2 3088   2.946   3.714   0.129  0.1615 -0.5896  1.1216
  986SOL     OW 3089   2.098   2.171   2.843 -0.0049  0.3692 -0.9991
  986SOL    HW1 3090   2.026   2.196   2.902 -0.5751 -0.8083 -1.1727
  986SOL    HW2 3091   2.111   2.249   2.789 -1.7235  0.3524 -1.5177
  987SOL     OW 3092   3.388   2.061   3.605  0.7952  0.0042 -0.0831
  987SOL    HW1 3093   3.443   2.033   3.679 -0.1256  1.2554  1.1316
  987SOL    HW2 3094   3.298   2.058   3.640  0.4700  2.1281 -0.6317
  988SOL     OW 3095   2.726   1.021   1.117  0.2073  0.0511  0.3607
  988SOL    HW1 3096   2.813   1.022   1.076  0.0930 -0.4396  0.0915
  988SOL    HW2 3097   2.741   0.987   1.205  0.2266 -0.5281  0.1422
  989SOL     OW 3098   1.336   2.129   1.610 -0.1012  0.8733  0.2460
  989SOL    HW1 3099   1.361   2.197   1.672 -0.3866  2.4259 -1.2741
  989SOL    HW2 3100   1.364   2.162   1.524  1.4339 -1.7657 -0.3897
  990SOL     OW 3101   2.486  -0.021   1.740  0.0621 -0.1140 -0.1635
  990SOL    HW1 3102   2.480   0.026   1.823  0.6250 -0.0462 -0.1587
  990SOL    HW2 3103   2.545   0.032   1.686  0.3072 -0.5552 -0.3347
  991SOL     OW 3104   1.921   3.172   2.266 -0.1462 -0.4074  0.3107
  991SOL    HW1 3105   1.987   3.240   2.281 -0.7446 -0.0151  1.2537
  991SOL    HW2 3106   1.902   3.138   2.353 -0.1009 -1.5661 -0.1160
  992SOL     OW 3107   1.262   2.440   1.976 -0.1761  0.1314 -0.6253
  992SOL    HW1 3108   1.314   2.366   1.944 -1.5178 -2.5679  2.7336
  992SOL    HW2 3109   1.208   2.466   1.901  1.0417 -1.6398 -2.2024
  993SOL     OW 3110   1.861   0.042   2.739  0.4136  0.6564  0.0571
  993SOL    HW1 3111   1.832   0.058   2.650  1.0337  0.7208 -0.1416
  993SOL    HW2 3112   1.936  -0.017   2.730 -1.0206 -1.3820  0.6837
  994SOL     OW 3113   0.117   0.430   2.917  0.0587 -0.3179  0.1351
  994SOL    HW1 3114   0.139   0.499   2.854 -2.3326  0.8412  0.4747
  994SOL    HW2 3115   0.194   0.424   2.974  0.4895  1.7595 -0.1716
  995SOL     OW 3116   3.372   0.537   2.036  0.6399 -0.4185 -0.2504
  995SOL    HW1 3117   3.399   0.627   2.021 -1.8718  0.1344 -2.1236
  995SOL    HW2 3118   3.312   0.541   2.110  0.5115 -0.5456 -0.3464
  996SOL     OW 3119   0.891   2.530   1.054 -0.1514  0.3706 -0.6580
  996SOL    HW1 3120   0.819   2.500   1.110 -0.8787  0.2703 -1.6204
  996SOL    HW2 3121   0.850   2.592   0.994  0.6873  0.7354 -0.8673
  997SOL     OW 3122   3.461   3.736   2.961  0.9090  0.0427  0.5977
  997SOL    HW1 3123   3.412   3.672   2.910 -1.6939  2.1276  0.2321
  997SOL    HW2 3124   3.537   3.758   2.906 -1.3938  1.6712 -2.2395
  998SOL     OW 3125   0.714   0.239   1.755  0.4258  0.5556  0.6314
  998SOL    HW1 3126   0.638   0.227   1.699 -1.2308  0.0749  2.8478
  998SOL    HW2 3127   0.763   0.157   1.746 -0.5647 -0.0889  0.9127
  999SOL     OW 3128   2.916   2.537   3.639  0.4700 -0.4445 -0.1050
  999SOL    HW1 3129   2.930   2.609   3.579 -1.0529  0.8885  1.0562
  999SOL    HW2 3130   2.879   2.467   3.585  2.6738 -0.6873 -1.3853
 1000SOL     OW 3131   1.787   2.213   0.266  0.1180 -0.6584  0.3123
 1000SOL    HW1 3132   1.742   2.221   0.350 -1.5245  0.0994 -0.5948
 1000SOL    HW2 3133   1.865   2.268   0.275 -0.3761 -0.0763  1.1472
 1001SOL     OW 3134   1.528   2.542   1.852 -0.5993  0.8222  0.9892
 1001SOL    HW1 3135   1.621   2.539   1.876 -0.4802 -0.4786  0.4628
 1001SOL    HW2 3136   1.483   2.510   1.930 -0.3961 -0.9408  0.4323
 1002SOL     OW 3137   2.851   3.636   1.243  0.0901 -0.5483 -0.6173
 1002SOL    HW1 3138   2.871   3.714   1.296  2.8670 -0.7154 -1.3009
 1002SOL    HW2 3139   2.791   3.586   1.297  0.6114  0.6389  1.1597
 1003SOL     OW 3140   0.173   0.807   3.636  0.4284 -0.0614  0.0862
 1003SOL    HW1 3141   0.245   0.745   3.637 -0.4731 -1.1468 -0.2228
 1003SOL    HW2 3142   0.163   0.830   3.543  0.9079  0.7409  0.2255
 1004SOL     OW 3143   2.739   1.593   1.766 -0.3721  0.2244 -0.1146
 1004SOL    HW1 3144   2.762   1.682   1.792 -0.6584 -0.5631  3.3181
 1004SOL    HW2 3145   2.645   1.595   1.752 -0.1951  0.6992 -1.3148
 1005SOL     OW 3146   3.462   1.421   3.177  0.1035  0.9475  0.0231
 1005SOL    HW1 3147   3.373   1.409   3.144  0.1406  2.7493 -0.8534
 1005SOL    HW2 3148   3.489   1.334   3.206 -0.8779 -0.2705 -2.4518
 1006SOL     OW 3149   1.674   2.698   1.556 -0.2889  0.3445 -0.0813
 1006SOL    HW1 3150   1.740   2.631   1.574 -1.7162 -1.0667  0.1794
 1006SOL    HW2 3151   1.660   2.742   1.640 -0.6416 -0.2935  0.2049
 1007SOL     OW 3152   2.492   1.330   3.631  0.0354  0.2834  0.4240
 1007SOL    HW1 3153   2.488   1.354   3.724 -1.1941  2.3883 -0.0982
 1007SOL    HW2 3154   2.422   1.381   3.590  1.0765  0.0481 -1.7964
 1008SOL     OW 3155   3.259   1.404   3.444 -0.3129  0.3241 -0.3586
 1008SOL    HW1 3156   3.203   1.447   3.379 -0.2917  0.5586 -0.2234
 1008SOL    HW2 3157   3.348   1.414   3.409 -0.2279  1.0813  0.0520
 1009SOL     OW 3158   1.961   2.859   3.512 -0.2237  0.4421  0.5905
 1009SOL    HW1 3159   2.030   2.889   3.452 -0.2835  0.4421  0.5222
 1009SOL    HW2 3160   1.991   2.888   3.598  0.9820 -1.4749  0.8786
 1010SOL     OW 3161   0.521   1.314   1.755  0.1248  0.2346 -0.6468
 1010SOL    HW1 3162   0.478   1.342   1.674 -1.1758  2.4168  0.7032
 1010SOL    HW2 3163   0.605   1.280   1.726 -0.1057  1.3545 -2.8918
 1011SOL     OW 3164   3.136   2.931   1.682 -0.5077  0.2519  0.0108
 1011SOL    HW1 3165   3.044   2.916   1.661 -1.2518  2.7124  1.1665
 1011SOL    HW2 3166   3.142   2.918   1.776  0.2108  0.6114  0.0212
 1012SOL     OW 3167   0.541   0.429   0.059  0.2917 -0.5283 -0.2665
 1012SOL    HW1 3168   0.549   0.376  -0.021  0.9597 -0.9544  0.0739
 1012SOL    HW2 3169   0.626   0.471   0.069  0.2345 -0.5302  0.2571
 1013SOL     OW 3170   3.545   1.892   1.086 -0.3576  0.4131  0.1850
 1013SOL    HW1 3171   3.579   1.816   1.132 -0.2615  0.4777  0.2210
 1013SOL    HW2 3172   3.619   1.953   1.081  0.4338 -0.6708 -2.5008
 1014SOL     OW 3173   3.057   3.289   3.407 -0.1931 -0.5557  0.3910
 1014SOL    HW1 3174   2.985   3.298   3.469  0.6188  2.8787  1.0558
 1014SOL    HW2 3175   3.042   3.360   3.344  2.4020  0.0924  0.4050
 1015SOL     OW 3176   2.097   0.884   1.576 -0.1002 -0.4033 -0.7918
 1015SOL    HW1 3177   2.070   0.804   1.530 -3.9920  1.0850 -1.5243
 1015SOL    HW2 3178   2.101   0.950   1.507 -0.6509  0.7707  0.2794
 1016SOL     OW 3179   2.289   2.871   3.739  0.4426 -0.1388 -0.2556
 1016SOL    HW1 3180   2.355   2.873   3.671  2.5595  0.8984  1.7034
 1016SOL    HW2 3181   2.307   2.947   3.793 -0.6454 -1.3109  1.9084
 1017SOL     OW 3182   2.161   2.346   1.624 -0.5144 -0.3188  0.4075
 1017SOL    HW1 3183   2.180   2.438   1.603  0.2584 -0.4290  0.6196
 1017SOL    HW2 3184   2.066   2.345   1.637 -0.4476  0.6164  1.1676
 1018SOL     OW 3185   2.601   0.950   2.153  0.3334 -0.1949 -0.1026
 1018SOL    HW1 3186   2.630   0.880   2.095 -1.2665 -0.2592 -0.9021
 1018SOL    HW2 3187   2.588   1.025   2.095  0.3928  0.2508  0.4589
 1019SOL     OW 3188   3.126   1.960   3.409 -0.2649 -0.6640  0.3954
 1019SOL    HW1 3189   3.221   1.949   3.414  0.0437 -0.0991 -2.5061
 1019SOL    HW2 3190   3.107   2.036   3.464  1.1917  0.1127 -0.1347
 1020SOL     OW 3191   3.733   1.340   2.809  0.3900 -0.3474  0.0622
 1020SOL    HW1 3192   3.738   1.244   2.815 -0.2376 -0.5453 -1.7995
 1020SOL    HW2 3193   3.656   1.363   2.861  1.9343 -0.5382  2.5985
 1021SOL     OW 3194   2.949   0.922   0.984  0.0563 -0.1849  0.2661
 1021SOL    HW1 3195   2.873   0.883   0.941  0.5475  0.9297 -1.7221
 1021SOL    HW2 3196   3.010   0.849   0.994 -1.3302 -1.1883  2.2521
 1022SOL     OW 3197   1.974   3.555   3.122 -0.5621  0.3678 -0.1643
 1022SOL    HW1 3198   1.894   3.526   3.166 -0.3588  1.6814  1.1681
 1022SOL    HW2 3199   1.987   3.493   3.051 -2.6132 -0.0156 -0.2424
 1023SOL     OW 3200   0.043   0.032   2.234  0.2408  0.0405 -0.6926
 1023SOL    HW1 3201   0.109   0.080   2.284 -0.5957  2.2290 -1.5663
 1023SOL    HW2 3202   0.082   0.023   2.146  0.8365 -1.9211 -0.2656
 1024SOL     OW 3203   0.846   0.071   2.178 -0.3758 -0.4946 -0.0419
 1024SOL    HW1 3204   0.814  -0.014   2.206 -0.6897 -0.7623 -1.1482
 1024SOL    HW2 3205   0.929   0.082   2.223 -0.6515 -1.0928  0.6210
 1025SOL     OW 3206   3.331   1.046   0.873  0.7935  0.0285 -0.1527
 1025SOL    HW1 3207   3.340   1.003   0.788 -1.5731 -3.1842  1.0134
 1025SOL    HW2 3208   3.237   1.049   0.888  1.0809  2.0994  1.6732
 1026SOL     OW 3209   1.329   2.595   3.405  0.1798  0.1904 -0.3355
 1026SOL    HW1 3210   1.276   2.645   3.468 -0.1441  0.9187 -1.1704
 1026SOL    HW2 3211   1.418   2.627   3.418  0.1042  0.3842 -0.2861
 1027SOL     OW 3212   0.293   2.876   1.639  0.0532 -0.2051  0.0487
 1027SOL    HW1 3213   0.340   2.940   1.586  0.3088 -0.3627  0.0816
 1027SOL    HW2 3214   0.261   2.812   1.576  1.0741 -0.8466  0.1540
 1028SOL     OW 3215   3.146   1.259   0.437 -0.5088  0.0179  0.5059
 1028SOL    HW1 3216   3.222   1.290   0.388 -0.1368  0.4531  1.3447
 1028SOL    HW2 3217   3.137   1.168   0.411 -1.7384  0.7853 -2.1742
 1029SOL     OW 3218   1.130   0.799   2.822  0.0682 -0.1626 -0.2485
 1029SOL    HW1 3219   1.038   0.780   2.802 -0.0637  0.8214 -0.6456
 1029SOL    HW2 3220   1.130   0.890   2.851  0.9464 -0.0869 -0.4461
 1030SOL     OW 3221   3.562   3.676   2.431 -0.4200 -0.6121 -0.0457
 1030SOL    HW1 3222   3.616   3.754   2.417 -2.7357  0.6829 -2.8632
 1030SOL    HW2 3223   3.621   3.603   2.415  0.8711  0.6885 -1.6011
 1031SOL     OW 3224   0.122   1.560   2.716  0.0752  0.2333  0.5324
 1031SOL    HW1 3225   0.096   1.469   2.735 -0.6904  0.4805  0.6863
 1031SOL    HW2 3226   0.216   1.554   2.701 -0.1694 -0.7950 -0.7533
 1032SOL     OW 3227   2.537   0.004   0.689 -0.1429  0.8510 -0.1138
 1032SOL    HW1 3228   2.521   0.085   0.640  1.6724 -0.2666 -2.7429
 1032SOL    HW2 3229   2.603   0.028   0.754 -0.2106  1.6469 -0.3260
 1033SOL     OW 3230   3.690   3.174   0.132  0.0952  0.2224  0.2495
 1033SOL    HW1 3231   3.627   3.160   0.203 -1.0567 -0.4697 -0.8756
 1033SOL    HW2 3232   3.672   3.104   0.070  1.6633  0.3161 -0.3429
 1034SOL     OW 3233   0.621   3.127   3.595  0.3117 -0.5150 -0.4817
 1034SOL    HW1 3234   0.601   3.037   3.570 -0.6140 -1.1663  2.2187
 1034SOL    HW2 3235   0.626   3.125   3.691  3.6669  1.6371 -0.4226
 1035SOL     OW 3236   3.168   2.067   0.021  0.1522  0.8446 -0.4176
 1035SOL    HW1 3237   3.170   2.024   0.107  2.0172 -0.0812 -0.8769
 1035SOL    HW2 3238   3.085   2.115   0.021 -1.0134 -0.9881  0.9852
 1036SOL     OW 3239   2.611   1.511   2.055 -0.0252 -0.0815  0.3085
 1036SOL    HW1 3240   2.639   1.426   2.088  0.6147  0.3681  0.9694
 1036SOL    HW2 3241   2.601   1.498   1.960  0.5208 -0.7698  0.3351
 1037SOL     OW 3242   3.043   3.232   1.158  0.0313 -0.0544  0.5209
 1037SOL    HW1 3243   3.091   3.315   1.162 -2.5758  1.5402  1.4002
 1037SOL    HW2 3244   3.021   3.221   1.066  2.5710 -1.1994 -0.0196
 1038SOL     OW 3245   2.978   1.624   3.542  0.7793 -0.1382 -0.1864
 1038SOL    HW1 3246   2.934   1.621   3.627 -0.9615  2.5004 -0.8828
 1038SOL    HW2 3247   2.908   1.610   3.478  1.5616  0.6259 -1.2487
 1039SOL     OW 3248   1.940   1.248   2.338 -0.0079 -0.2920 -0.3689
 1039SOL    HW1 3249   1.983   1.242   2.424  0.0901 -1.4613 -0.4721
 1039SOL    HW2 3250   1.943   1.341   2.316 -2.3362  0.4650  2.0335
 1040SOL     OW 3251   1.617   3.195   0.320  0.2489  0.0999 -0.5305
 1040SOL    HW1 3252   1.683   3.262   0.303  0.1243  0.4273  0.2318
 1040SOL    HW2 3253   1.534   3.243   0.320  0.1247 -0.1137 -0.3549
 1041SOL     OW 3254   1.195   2.743   2.661  0.2903  0.2852 -0.0806
 1041SOL    HW1 3255   1.261   2.800   2.701  0.4721 -0.8608  1.2996
 1041SOL    HW2 3256   1.227   2.654   2.677 -0.6029 -0.2497 -1.1406
 1042SOL     OW 3257   2.333   2.542   1.007 -0.1578  0.0257  0.9243
 1042SOL    HW1 3258   2.248   2.508   1.034 -0.6074 -1.5707 -2.0648
 1042SOL    HW2 3259   2.315   2.591   0.927  1.7789 -1.1102 -0.3065
 1043SOL     OW 3260   0.491   3.596   2.346  0.0208  0.0292  0.0103
 1043SOL    HW1 3261   0.481   3.651   2.268  0.4453  1.8582  1.1797
 1043SOL    HW2 3262   0.553   3.644   2.401 -0.7420 -0.8941  1.7593
 1044SOL     OW 3263   3.001   3.553   3.269  0.0392  0.0062 -0.2555
 1044SOL    HW1 3264   3.031   3.618   3.333  2.6998 -0.3281 -1.0542
 1044SOL    HW2 3265   3.068   3.553   3.201 -0.4754 -2.7454 -0.8878
 1045SOL     OW 3266   0.133   1.120   2.944 -0.0358  0.4461  0.7411
 1045SOL    HW1 3267   0.154   1.175   3.020 -1.8667  0.5497  1.2081
 1045SOL    HW2 3268   0.219   1.099   2.905  0.7831  2.4440  1.3681
 1046SOL     OW 3269   0.307   2.097   1.265 -0.0787 -0.0479 -0.5878
 1046SOL    HW1 3270   0.217   2.063   1.268  0.6111 -2.1389 -1.7645
 1046SOL    HW2 3271   0.321   2.133   1.352 -1.0261 -2.5800  0.7108
 1047SOL     OW 3272   3.405   3.019   1.659  0.1842  0.9117 -0.7296
 1047SOL    HW1 3273   3.398   3.071   1.739  1.3893 -1.3925  0.9775
 1047SOL    HW2 3274   3.315   2.998   1.636 -0.1618 -1.4322  2.2302
 1048SOL     OW 3275   0.764   2.172   2.355 -0.6428  0.3196 -0.1329
 1048SOL    HW1 3276   0.850   2.131   2.356 -0.6448  0.2649 -1.1843
 1048SOL    HW2 3277   0.703   2.098   2.360 -0.6353  0.3481  0.4365
 1049SOL     OW 3278   0.306   2.119   2.955 -0.7086  0.1756  0.0647
 1049SOL    HW1 3279   0.249   2.088   2.885  0.2468 -1.3903 -0.0539
 1049SOL    HW2 3280   0.381   2.059   2.955 -0.1121  0.8465  1.6581
 1050SOL     OW 3281   1.635   1.369   1.549 -0.3291  0.2188  0.4942
 1050SOL    HW1 3282   1.720   1.367   1.593 -0.0322 -2.2027 -0.0178
 1050SOL    HW2 3283   1.656   1.378   1.456 -0.6142 -0.4911  0.3564
 1051SOL     OW 3284   3.350   1.732   1.485  0.2288  0.2219 -0.0711
 1051SOL    HW1 3285   3.361   1.809   1.540  2.4829  0.0974 -0.2365
 1051SOL    HW2 3286   3.330   1.766   1.398  1.3808  0.6710 -0.1820
 1052SOL     OW 3287   1.047   2.519   2.296  0.4674 -0.2541 -0.4486
 1052SOL    HW1 3288   0.959   2.511   2.258  0.6575  0.3135 -1.0200
 1052SOL    HW2 3289   1.075   2.428   2.309 -0.8757 -0.4661  1.3672
 1053SOL     OW 3290   3.174   2.121   1.758  0.0338  0.0279 -0.6002
 1053SOL    HW1 3291   3.109   2.160   1.700  0.1481  0.8027 -0.2151
 1053SOL    HW2 3292   3.130   2.114   1.843  0.3040  0.1517 -0.4472
 1054SOL     OW 3293   1.459   0.976   0.887  0.1343  0.3210 -0.3711
 1054SOL    HW1 3294   1.375   0.936   0.870  0.6371 -0.7680 -0.3555
 1054SOL    HW2 3295   1.509   0.910   0.935  0.5320  1.4446  0.8594
 1055SOL     OW 3296   3.538   2.673   3.618  0.5521  0.5334  0.2269
 1055SOL    HW1 3297   3.602   2.705   3.555 -0.6458 -1.9952 -2.5576
 1055SOL    HW2 3298   3.544   2.577   3.612 -3.2536  0.1445 -0.0463
 1056SOL     OW 3299   3.724   2.061   0.480 -0.3265 -0.3158 -0.2791
 1056SOL    HW1 3300   3.643   2.089   0.437 -1.0893 -1.8651  0.0709
 1056SOL    HW2 3301   3.763   1.999   0.418  0.1262 -0.2584 -0.0512
 1057SOL     OW 3302   3.516   3.512   0.294  0.0868  0.1084  0.3703
 1057SOL    HW1 3303   3.571   3.467   0.230  0.4253  0.9885  0.0184
 1057SOL    HW2 3304   3.546   3.603   0.291 -0.0873  0.2307  1.5681
 1058SOL     OW 3305   0.843   2.005   0.213 -0.4574  0.1376  0.3883
 1058SOL    HW1 3306   0.824   2.077   0.152  1.6138  0.5160  0.1115
 1058SOL    HW2 3307   0.861   2.048   0.296  0.5579 -0.0419  0.2793
 1059SOL     OW 3308   0.183   0.129   2.988  0.0605  0.3797  0.1826
 1059SOL    HW1 3309   0.113   0.138   3.053 -1.0069  1.9585 -1.1040
 1059SOL    HW2 3310   0.247   0.196   3.012 -0.2718  0.8748 -0.2812
 1060SOL     OW 3311   3.173   0.942   2.590  0.1122  0.3646  0.2751
 1060SOL    HW1 3312   3.081   0.969   2.590  0.5118  1.7969  1.0011
 1060SOL    HW2 3313   3.217   1.003   2.649  0.9866 -2.2231  2.5355
 1061SOL     OW 3314   2.271   2.054   3.009 -0.1890  0.1966 -0.4294
 1061SOL    HW1 3315   2.224   2.092   2.935 -0.2309 -0.9012 -0.9771
 1061SOL    HW2 3316   2.252   1.960   3.004 -0.2197  0.1083  0.9895
 1062SOL     OW 3317   3.184   1.453   2.684  0.1656  0.6094 -0.1378
 1062SOL    HW1 3318   3.155   1.429   2.596  0.8048  1.7635 -0.6726
 1062SOL    HW2 3319   3.232   1.376   2.714 -1.6867 -0.5732  0.0036
 1063SOL     OW 3320   1.629   1.593   0.934  0.2684 -0.6282  0.2164
 1063SOL    HW1 3321   1.554   1.548   0.895  1.0604 -0.9967 -0.9196
 1063SOL    HW2 3322   1.655   1.658   0.868  1.6666 -1.2915  0.0735
 1064SOL     OW 3323   2.535   0.651   2.500 -0.4031  0.1685  0.4023
 1064SOL    HW1 3324   2.473   0.585   2.469  0.6950 -0.5475 -0.3136
 1064SOL    HW2 3325   2.549   0.628   2.592  0.8732 -1.3483 -0.1407
 1065SOL     OW 3326   0.506   1.401   3.582  0.0403  0.7915  0.0608
 1065SOL    HW1 3327   0.519   1.476   3.640 -0.2337  1.6102 -0.9020
 1065SOL    HW2 3328   0.447   1.433   3.514 -1.8940 -0.9388  0.7940
 1066SOL     OW 3329   1.315   1.878   0.721  0.0339 -0.2621 -0.1111
 1066SOL    HW1 3330   1.315   1.971   0.698  0.5176  0.4524  2.5108
 1066SOL    HW2 3331   1.254   1.838   0.659 -2.9030  2.3982  0.8058
 1067SOL     OW 3332   2.491   3.136   1.883 -0.4819  0.0836 -0.1320
 1067SOL    HW1 3333   2.427   3.108   1.817 -0.6486  0.8822 -0.3184
 1067SOL    HW2 3334   2.462   3.093   1.964  0.8502 -2.5416 -0.9191
 1068SOL     OW 3335   2.228   3.326   3.060 -0.2395  0.4889  0.1884
 1068SOL    HW1 3336   2.175   3.309   2.983  1.1076  0.3010 -0.7255
 1068SOL    HW2 3337   2.244   3.239   3.098 -2.5309  0.7104  1.8630
 1069SOL     OW 3338   3.007   3.503   2.453  0.2322 -0.1878  0.1202
 1069SOL    HW1 3339   3.081   3.564   2.451  1.2761 -1.4117 -0.8653
 1069SOL    HW2 3340   2.956   3.525   2.375 -0.2659  0.4299  0.6124
 1070SOL     OW 3341   3.671   0.016   0.249 -0.2048 -0.0166  0.3574
 1070SOL    HW1 3342   3.680   0.052   0.337  2.2232  2.1664 -0.6675
 1070SOL    HW2 3343   3.604   0.070   0.208 -0.5458 -0.3316  0.4846
 1071SOL     OW 3344   1.070   0.316   2.873  0.0188 -0.3373  0.4231
 1071SOL    HW1 3345   1.107   0.349   2.791 -1.6568 -0.8041 -0.5690
 1071SOL    HW2 3346   1.012   0.245   2.846 -0.3418 -0.7049  2.0565
 1072SOL     OW 3347   0.175   2.676   1.109  0.5874 -0.0930 -0.0749
 1072SOL    HW1 3348   0.113   2.735   1.067  1.1056  1.0843  0.7497
 1072SOL    HW2 3349   0.121   2.614   1.157  0.0298  0.0101 -0.5612
 1073SOL     OW 3350   0.569   0.204   3.282 -0.0296  0.0451  0.5137
 1073SOL    HW1 3351   0.650   0.232   3.237  0.4281 -1.3514  0.4378
 1073SOL    HW2 3352   0.582   0.112   3.300 -2.0705 -0.5023 -0.4773
 1074SOL     OW 3353   2.572   3.232   3.059  0.3729 -0.1714 -0.4321
 1074SOL    HW1 3354   2.543   3.275   2.979  0.3708  0.9558  0.1575
 1074SOL    HW2 3355   2.646   3.284   3.089 -0.9666  0.7721  1.4557
 1075SOL     OW 3356   2.168   1.804   3.045 -0.6500 -0.2746 -0.0681
 1075SOL    HW1 3357   2.182   1.733   2.982 -0.6705  1.7927 -2.5713
 1075SOL    HW2 3358   2.238   1.794   3.108  1.1091 -0.8912 -1.9991
 1076SOL     OW 3359   0.897   2.384   3.628  0.3152 -0.1668 -0.1483
 1076SOL    HW1 3360   0.912   2.315   3.563  1.4430 -1.2271  1.1459
 1076SOL    HW2 3361   0.895   2.465   3.578 -3.3223 -1.2273 -2.0370
 1077SOL     OW 3362   0.869   3.086   1.981 -0.0804  0.1422  0.2499
 1077SOL    HW1 3363   0.816   3.142   1.925 -0.2964 -1.7721 -1.6035
 1077SOL    HW2 3364   0.811   3.013   2.003  0.9627 -0.6656  0.3869
 1078SOL     OW 3365   0.817   2.583   2.175  0.0722 -0.0498 -0.2075
 1078SOL    HW1 3366   0.776   2.528   2.108  1.3010 -0.0617 -0.9824
 1078SOL    HW2 3367   0.745   2.633   2.212 -0.7435 -0.5745 -1.0319
 1079SOL     OW 3368   3.285   2.369   1.779 -0.4759  0.0426 -0.3666
 1079SOL    HW1 3369   3.264   2.412   1.863  3.0131  0.3233  0.4986
 1079SOL    HW2 3370   3.235   2.288   1.781 -1.1686  0.4537  1.5798
 1080SOL     OW 3371   1.402   0.061   1.689 -0.9633  0.3713  0.0099
 1080SOL    HW1 3372   1.463   0.014   1.744 -0.8318 -2.0701 -2.0398
 1080SOL    HW2 3373   1.318   0.055   1.735 -0.9184 -1.8172 -0.0905
 1081SOL     OW 3374   0.423   1.548   3.379 -0.6544  0.1009 -0.2871
 1081SOL    HW1 3375   0.513   1.539   3.347 -1.2741 -1.4593 -1.7139
 1081SOL    HW2 3376   0.378   1.596   3.309 -1.1928 -0.1054 -0.0815
 1082SOL     OW 3377   1.941   1.618   0.468 -0.1298 -0.3267  0.2124
 1082SOL    HW1 3378   1.989   1.686   0.421 -0.3606  0.7867  1.5516
 1082SOL    HW2 3379   1.998   1.595   0.542  0.1191 -1.8842 -0.4056
 1083SOL     OW 3380   0.806   1.640   2.222 -0.5553 -0.0411  0.5420
 1083SOL    HW1 3381   0.711   1.641   2.218 -0.5762  1.2200  0.7773
 1083SOL    HW2 3382   0.833   1.584   2.150 -1.4180  2.5024 -1.9399
 1084SOL     OW 3383   1.606   3.328   0.043 -0.0850 -0.0668  0.4291
 1084SOL    HW1 3384   1.560   3.320  -0.040 -1.4755 -0.5598  1.2009
 1084SOL    HW2 3385   1.554   3.391   0.093 -1.8112 -2.8460  2.4627
 1085SOL     OW 3386   0.963   1.858   3.611  0.0004  0.1299  0.0901
 1085SOL    HW1 3387   1.034   1.877   3.673 -0.6171 -1.3047  1.2948
 1085SOL    HW2 3388   1.002   1.799   3.547  0.5668  1.3991 -0.7725
 1086SOL     OW 3389   3.572   1.733   0.848 -0.3177 -1.2308  0.3658
 1086SOL    HW1 3390   3.556   1.789   0.924 -2.2683 -1.5718  0.2575
 1086SOL    HW2 3391   3.571   1.644   0.883  1.8134 -1.2879  0.3842
 1087SOL     OW 3392   3.085   1.029   1.375  0.5469  0.0678  0.1803
 1087SOL    HW1 3393   3.079   1.115   1.334 -1.5748 -0.2560 -0.3214
 1087SOL    HW2 3394   3.172   0.997   1.352  0.5577  1.1806 -1.4813
 1088SOL     OW 3395   3.349   3.165   2.610  0.0955  0.0801  0.2716
 1088SOL    HW1 3396   3.314   3.166   2.521  0.9141  0.2453 -0.0558
 1088SOL    HW2 3397   3.333   3.076   2.641 -1.4251  0.4050  0.4626
 1089SOL     OW 3398   0.733   1.718   3.561  0.0397 -0.0578  0.5973
 1089SOL    HW1 3399   0.699   1.701   3.649 -1.8972  1.8464  0.2938
 1089SOL    HW2 3400   0.794   1.791   3.573 -0.8439  0.7427  0.2630
 1090SOL     OW 3401   1.713   0.769   3.596 -0.0891  0.8035  0.4259
 1090SOL    HW1 3402   1.633   0.715   3.599  0.3206  0.1969  3.0618
 1090SOL    HW2 3403   1.773   0.720   3.539 -0.5419 -0.3229  0.8931
 1091SOL     OW 3404   0.942   1.514   3.228 -0.0498  0.2663  0.2502
 1091SOL    HW1 3405   0.958   1.423   3.201  0.3050  0.3867  0.0583
 1091SOL    HW2 3406   0.914   1.507   3.319  0.0527 -0.0314  0.2600
 1092SOL     OW 3407   0.937   0.837   0.180 -0.2336 -0.5580  1.1747
 1092SOL    HW1 3408   0.859   0.862   0.228  0.1348 -0.4781  1.7348
 1092SOL    HW2 3409   1.010   0.856   0.239  0.3367  0.7998  0.1074
 1093SOL     OW 3410   2.438   3.329   2.805  0.0755 -0.4320 -0.1557
 1093SOL    HW1 3411   2.366   3.283   2.762  1.0926 -1.1225 -1.1821
 1093SOL    HW2 3412   2.508   3.331   2.739  0.9705  0.2849  0.7850
 1094SOL     OW 3413   3.119   0.047   2.453 -0.1551  0.1316 -0.6611
 1094SOL    HW1 3414   3.058   0.039   2.526  0.2955  0.7903 -0.2008
 1094SOL    HW2 3415   3.069   0.090   2.384  0.0008  1.4201 -0.0010
 1095SOL     OW 3416   2.237   1.833   2.406 -0.0373  0.2373 -0.0835
 1095SOL    HW1 3417   2.232   1.747   2.447 -0.9453  0.5411  0.4690
 1095SOL    HW2 3418   2.147   1.865   2.405  0.4208  1.6757  0.8389
 1096SOL     OW 3419   0.773   0.144   0.135 -0.7454 -0.2285  0.1832
 1096SOL    HW1 3420   0.849   0.170   0.187 -1.3011 -0.1643  0.9764
 1096SOL    HW2 3421   0.809   0.088   0.066  0.3764  1.7619 -0.9726
 1097SOL     OW 3422   0.305   0.320   3.182  0.0895 -0.3809  0.2132
 1097SOL    HW1 3423   0.282   0.331   3.274 -0.0127 -1.9545  0.4083
 1097SOL    HW2 3424   0.382   0.263   3.184 -2.0669 -3.5677 -0.7451
 1098SOL     OW 3425   1.602   0.229   0.059 -0.2323  0.6678 -0.6819
 1098SOL    HW1 3426   1.657   0.236   0.137 -0.7998 -0.1944 -0.1857
 1098SOL    HW2 3427   1.564   0.316   0.048 -0.0859  0.8189 -0.0390
 1099SOL     OW 3428   3.208   0.599   2.280  0.0182 -0.2747 -0.1535
 1099SOL    HW1 3429   3.147   0.667   2.309  0.0872  0.5859 -1.8999
 1099SOL    HW2 3430   3.288   0.617   2.330 -1.0169 -1.3006  2.0097
 1100SOL     OW 3431   3.138   1.600   2.357  0.3616 -0.2038  0.0006
 1100SOL    HW1 3432   3.228   1.580   2.384  0.3507 -0.0030  0.1858
 1100SOL    HW2 3433   3.111   1.673   2.413  0.1026 -0.2250 -0.0936
 1101SOL     OW 3434   1.902   1.167   3.697  0.1253 -0.1381  0.6312
 1101SOL    HW1 3435   1.905   1.188   3.790  1.0153  1.4714  0.2815
 1101SOL    HW2 3436   1.952   1.086   3.689 -0.6292 -0.7152  1.6459
 1102SOL     OW 3437   2.980   0.276   1.889 -0.2672 -0.2139  0.0749
 1102SOL    HW1 3438   3.022   0.361   1.885 -1.0319  0.2294  0.9968
 1102SOL    HW2 3439   3.001   0.243   1.977 -1.2841 -0.2564  0.3149
 1103SOL     OW 3440   2.414   0.326  -0.018 -0.6608 -0.5137 -0.5518
 1103SOL    HW1 3441   2.417   0.359   0.071 -0.1498 -1.7262 -0.0843
 1103SOL    HW2 3442   2.323   0.338  -0.046 -1.0430 -0.9262  0.4646
 1104SOL     OW 3443   2.428   3.375   3.493  0.5487 -0.5153 -0.6458
 1104SOL    HW1 3444   2.372   3.440   3.537  0.8803 -2.4310  2.9862
 1104SOL    HW2 3445   2.367   3.310   3.459  0.3820 -0.5027 -0.3760
 1105SOL     OW 3446   1.355   1.483   1.215 -0.0009 -0.0485  0.3309
 1105SOL    HW1 3447   1.319   1.406   1.259 -0.9916  0.3048  0.1602
 1105SOL    HW2 3448   1.309   1.557   1.255  1.3026  0.5133  0.8547
 1106SOL     OW 3449   3.452   1.318   2.590  0.3597  0.0122 -1.1851
 1106SOL    HW1 3450   3.440   1.389   2.527 -0.4863  1.8989  0.9752
 1106SOL    HW2 3451   3.490   1.360   2.667  0.7325 -2.0794 -0.1474
 1107SOL     OW 3452   2.169   2.937   3.351 -0.4262  0.2280  0.2427
 1107SOL    HW1 3453   2.172   3.001   3.280 -0.5794 -0.1589 -0.1217
 1107SOL    HW2 3454   2.258   2.903   3.356 -0.9320 -1.6489 -1.5776
 1108SOL     OW 3455   1.688   2.250   1.480 -0.2877 -0.8322 -0.8002
 1108SOL    HW1 3456   1.653   2.271   1.394  0.1962  3.1227 -0.2288
 1108SOL    HW2 3457   1.612   2.257   1.538 -0.2062 -1.2688 -0.6407
 1109SOL     OW 3458   2.182   0.735   3.228 -0.0674  0.5132 -0.3150
 1109SOL    HW1 3459   2.125   0.668   3.189 -4.5289  2.8280  1.5397
 1109SOL    HW2 3460   2.192   0.707   3.319  0.2351  1.0679 -0.1738
 1110SOL     OW 3461   2.685   3.361   1.209 -0.4155  0.0585  0.5106
 1110SOL    HW1 3462   2.624   3.432   1.228 -0.4769 -0.2245  1.4494
 1110SOL    HW2 3463   2.660   3.330   1.122 -0.8079  0.7564  0.3684
 1111SOL     OW 3464   0.654   0.672   2.180  0.3106 -0.5769 -0.1182
 1111SOL    HW1 3465   0.606   0.599   2.141  0.6642 -1.4473  0.9973
 1111SOL    HW2 3466   0.708   0.631   2.248  1.4893  0.5656 -0.3175
 1112SOL     OW 3467   0.420   2.623   2.767  0.7752  0.3190 -0.0925
 1112SOL    HW1 3468   0.489   2.681   2.735  1.5731  0.9945  2.5822
 1112SOL    HW2 3469   0.382   2.670   2.841 -1.3079 -0.8798 -0.3259
 1113SOL     OW 3470   0.873   1.576   1.374 -0.0586  0.2477 -0.2132
 1113SOL    HW1 3471   0.834   1.543   1.293  0.4417  0.6076 -0.6148
 1113SOL    HW2 3472   0.954   1.526   1.383  0.9171  1.5883 -1.0483
 1114SOL     OW 3473   0.521   2.187   2.028  0.3414  0.2067 -0.1229
 1114SOL    HW1 3474   0.483   2.201   2.114  0.4928 -2.4370  0.4457
 1114SOL    HW2 3475   0.609   2.154   2.045  0.6464  0.3375 -1.3160
 1115SOL     OW 3476   3.633   2.831   2.118 -0.0500  0.1390 -0.5111
 1115SOL    HW1 3477   3.719   2.866   2.140 -0.2758  0.1309  0.4222
 1115SOL    HW2 3478   3.617   2.861   2.028  0.6251  0.7143 -0.4487
 1116SOL     OW 3479   0.880   1.193   0.326  0.8560  0.1241 -0.4112
 1116SOL    HW1 3480   0.943   1.147   0.270 -0.0269 -3.6348  1.3635
 1116SOL    HW2 3481   0.797   1.148   0.311 -0.1256  1.1547  1.5044
 1117SOL     OW 3482   0.903   3.093   0.063  0.5388 -0.4477 -0.1486
 1117SOL    HW1 3483   0.959   3.029   0.107 -0.1781 -0.2062  1.1790
 1117SOL    HW2 3484   0.822   3.046   0.045 -0.6979  0.4584  2.4749
 1118SOL     OW 3485   0.541   1.947   2.912  0.6210 -0.3254  0.1435
 1118SOL    HW1 3486   0.621   1.967   2.961  0.5643  0.9728 -0.2527
 1118SOL    HW2 3487   0.569   1.945   2.820 -0.0516  1.7590 -0.1506
 1119SOL     OW 3488   2.539   2.340   0.048  0.8643 -0.3244  0.5853
 1119SOL    HW1 3489   2.582   2.382   0.122  1.6065 -0.0504  0.0098
 1119SOL    HW2 3490   2.451   2.320   0.080  0.9858  0.3099  1.3495
 1120SOL     OW 3491   2.904   2.011   0.644  0.4754 -0.2593  0.1814
 1120SOL    HW1 3492   2.869   2.076   0.706 -0.5512 -0.3848 -0.2486
 1120SOL    HW2 3493   2.907   1.930   0.695  0.3116 -0.2073  0.2775
 1121SOL     OW 3494   0.745   2.099   1.540 -1.5457  0.3630  0.1919
 1121SOL    HW1 3495   0.668   2.055   1.576 -0.7456 -2.0778 -0.8475
 1121SOL    HW2 3496   0.818   2.039   1.558 -0.3735  1.2470 -1.3418
 1122SOL     OW 3497   3.627   3.594   1.945  0.2890  0.7679 -0.4809
 1122SOL    HW1 3498   3.704   3.651   1.935  0.6713  0.7803  1.9646
 1122SOL    HW2 3499   3.578   3.633   2.017 -0.5901 -0.7814 -0.2056
 1123SOL     OW 3500   2.995   0.351   0.799  0.2459  0.2157 -0.3549
 1123SOL    HW1 3501   2.940   0.273   0.804 -0.2213  0.5868  0.4962
 1123SOL    HW2 3502   2.937   0.419   0.764  0.9068 -0.0231 -1.9984
 1124SOL     OW 3503   0.291   1.603   0.599 -0.2063  0.2247 -0.1061
 1124SOL    HW1 3504   0.350   1.670   0.630 -0.1019 -0.3937  1.0986
 1124SOL    HW2 3505   0.203   1.637   0.616 -0.2377  1.0609 -1.7226
 1125SOL     OW 3506   2.965   1.331   3.390 -0.2778  0.2840  0.0865
 1125SOL    HW1 3507   2.943   1.381   3.469 -2.1098  1.5513 -1.1500
 1125SOL    HW2 3508   2.946   1.390   3.318 -0.6050 -1.5197 -1.3818
 1126SOL     OW 3509   2.282   2.645   2.837 -0.3935 -0.2225 -0.0839
 1126SOL    HW1 3510   2.337   2.642   2.759 -1.0041  0.8089 -0.5772
 1126SOL    HW2 3511   2.336   2.606   2.906  0.0713 -1.3524 -1.0539
 1127SOL     OW 3512   2.897   2.326   2.959 -0.4753  0.3089  0.0204
 1127SOL    HW1 3513   2.990   2.302   2.949 -0.6302 -0.0797 -0.5562
 1127SOL    HW2 3514   2.851   2.265   2.902 -1.2551 -0.6398  1.6255
 1128SOL     OW 3515   3.414   1.497   2.395  0.6026  0.1729  0.3247
 1128SOL    HW1 3516   3.486   1.558   2.381 -0.3392  1.3725  0.5130
 1128SOL    HW2 3517   3.408   1.447   2.313  2.6057 -1.0472  0.8501
 1129SOL     OW 3518   1.704   3.716   1.488 -0.1093  0.2841  0.0446
 1129SOL    HW1 3519   1.722   3.808   1.468 -1.0228  0.3491 -0.5333
 1129SOL    HW2 3520   1.786   3.683   1.524  0.6318  0.9898 -0.9322
 1130SOL     OW 3521   3.384   0.402   2.418  0.2100 -0.3858  0.6442
 1130SOL    HW1 3522   3.323   0.352   2.363 -1.5037  1.4490  0.7548
 1130SOL    HW2 3523   3.461   0.415   2.362 -0.3406 -0.9666 -0.2812
 1131SOL     OW 3524   1.067   0.619   1.039 -0.5491 -0.4824  0.1228
 1131SOL    HW1 3525   1.060   0.709   1.068  0.6937 -0.3006 -0.0852
 1131SOL    HW2 3526   1.041   0.567   1.115 -1.6711  0.0455  0.1100
 1132SOL     OW 3527   3.163   1.097   2.291 -0.2530  0.3877  0.4594
 1132SOL    HW1 3528   3.228   1.144   2.239  1.0828 -0.3456  1.4044
 1132SOL    HW2 3529   3.208   1.018   2.321 -1.6581 -0.2687  0.9659
 1133SOL     OW 3530   0.301   1.831   3.688  0.2981 -0.7474  0.2897
 1133SOL    HW1 3531   0.218   1.876   3.668 -0.3496 -2.3043 -0.7751
 1133SOL    HW2 3532   0.352   1.895   3.738  0.0194  1.7202 -2.2979
 1134SOL     OW 3533   0.228   3.059   3.189  0.1687  0.4405  0.2352
 1134SOL    HW1 3534   0.222   3.116   3.266  2.4202 -0.7585  1.4112
 1134SOL    HW2 3535   0.171   2.985   3.209  1.3817 -0.2797  1.2193
 1135SOL     OW 3536   1.482   0.860   1.628 -0.5529  0.3919 -0.1633
 1135SOL    HW1 3537   1.456   0.950   1.648  0.4482  0.6002  0.2849
 1135SOL    HW2 3538   1.494   0.820   1.714 -0.6764 -0.0780 -0.3634
 1136SOL     OW 3539   3.637   2.436   1.861 -0.3631 -0.0549 -0.0371
 1136SOL    HW1 3540   3.568   2.493   1.896  0.2909  0.7529 -0.0343
 1136SOL    HW2 3541   3.654   2.471   1.774  0.5500  0.2222  0.2422
 1137SOL     OW 3542   0.302   3.459   2.079  0.0682  0.4580  0.3697
 1137SOL    HW1 3543   0.222   3.415   2.050 -1.0265  0.3332  3.2841
 1137SOL    HW2 3544   0.368   3.390   2.080 -0.4346 -0.0324  0.3609
 1138SOL     OW 3545   1.628   1.804   2.521  0.0788  0.4909 -0.3303
 1138SOL    HW1 3546   1.549   1.858   2.516  0.6684  1.5091  0.7445
 1138SOL    HW2 3547   1.599   1.723   2.563 -0.1969  1.3355  1.1953
 1139SOL     OW 3548   1.593   1.947   0.254 -0.1983  0.7267  0.4592
 1139SOL    HW1 3549   1.595   2.037   0.285  2.5600  0.7627  0.3628
 1139SOL    HW2 3550   1.636   1.897   0.323  0.4729 -0.1379 -0.5557
 1140SOL     OW 3551   2.733   2.561   1.331 -0.6410 -0.4128  0.3116
 1140SOL    HW1 3552   2.648   2.534   1.296 -0.2006 -1.6951  0.1791
 1140SOL    HW2 3553   2.745   2.651   1.298 -2.3726  0.1687  1.1630
 1141SOL     OW 3554   0.994   3.401   2.832  0.3662 -0.5829 -0.4364
 1141SOL    HW1 3555   0.935   3.333   2.866 -0.2862 -0.0492 -0.4664
 1141SOL    HW2 3556   1.033   3.439   2.910 -2.6993  2.0598  0.0263
 1142SOL     OW 3557   1.427   0.278   2.090 -0.4830  0.4194 -0.2826
 1142SOL    HW1 3558   1.373   0.357   2.088  0.3220  0.9827 -0.0238
 1142SOL    HW2 3559   1.454   0.270   2.182  0.0484  0.2632 -0.4506
 1143SOL     OW 3560   1.804   1.126   1.157 -0.5638  0.0353 -0.3837
 1143SOL    HW1 3561   1.758   1.198   1.114  1.1689  0.4277 -1.7186
 1143SOL    HW2 3562   1.809   1.058   1.089 -1.6572 -1.1617  0.6689
 1144SOL     OW 3563   2.249   1.563   1.018  0.4075  0.2711 -0.3395
 1144SOL    HW1 3564   2.178   1.622   1.042 -0.2048  0.6482 -2.8061
 1144SOL    HW2 3565   2.327   1.617   1.018  0.8330 -0.1949  2.6091
 1145SOL     OW 3566   1.433   1.670   2.848 -0.6875  0.3753  0.7068
 1145SOL    HW1 3567   1.351   1.715   2.828 -1.5472 -0.9017  1.2154
 1145SOL    HW2 3568   1.468   1.716   2.924 -0.3213  1.6492 -0.2037
 1146SOL     OW 3569   0.358   2.235   1.540 -0.1805 -0.1108  0.2420
 1146SOL    HW1 3570   0.331   2.250   1.631  0.6783 -0.8860  0.6417
 1146SOL    HW2 3571   0.406   2.314   1.516  1.7609 -0.8895  1.3361
 1147SOL     OW 3572   1.312   3.216   2.132 -0.5802  0.5400 -0.3275
 1147SOL    HW1 3573   1.235   3.239   2.080 -0.9469 -0.4570 -0.2267
 1147SOL    HW2 3574   1.281   3.213   2.222 -0.1737  1.2030 -0.1521
 1148SOL     OW 3575   1.960   2.261   3.690  0.0266  0.1845  0.0775
 1148SOL    HW1 3576   2.017   2.278   3.614  0.9166 -1.3283  0.3488
 1148SOL    HW2 3577   1.921   2.345   3.710  0.6000  0.8514 -1.4075
 1149SOL     OW 3578   2.274   0.126   0.745 -0.4250 -0.5667  0.1419
 1149SOL    HW1 3579   2.347   0.066   0.730 -0.7621 -1.1874  0.8803
 1149SOL    HW2 3580   2.245   0.106   0.835 -0.2887  0.9819  0.5529
 1150SOL     OW 3581   0.334   1.326   3.185 -0.5075 -0.6900  0.8689
 1150SOL    HW1 3582   0.350   1.374   3.266  0.7805  0.2709  0.0758
 1150SOL    HW2 3583   0.331   1.393   3.117 -2.3426 -1.4008  0.1783
 1151SOL     OW 3584   1.748   3.167   3.409  0.0267 -0.1326  0.7086
 1151SOL    HW1 3585   1.687   3.118   3.353  1.7644 -0.1514 -1.2691
 1151SOL    HW2 3586   1.821   3.107   3.423 -0.1943  0.0043  2.7989
 1152SOL     OW 3587   1.254   0.224   0.192 -0.1373  0.0047 -0.5294
 1152SOL    HW1 3588   1.273   0.136   0.225 -1.1813 -0.1879 -0.4025
 1152SOL    HW2 3589   1.333   0.250   0.146  0.1297 -1.0634 -0.6924
 1153SOL     OW 3590   2.273   1.532   0.208 -0.3003  0.3716  0.2528
 1153SOL    HW1 3591   2.257   1.607   0.266 -1.0978 -0.3807  1.0523
 1153SOL    HW2 3592   2.363   1.505   0.227 -0.3912  0.4394  0.7893
 1154SOL     OW 3593   1.820   0.995   2.658  0.0477  0.2322  0.8676
 1154SOL    HW1 3594   1.773   1.068   2.617  1.6819  0.8546 -0.0319
 1154SOL    HW2 3595   1.901   0.989   2.607  0.1535 -1.9339  1.2327
 1155SOL     OW 3596   0.092   0.545   3.261 -0.5238 -0.2373 -0.3500
 1155SOL    HW1 3597   0.038   0.509   3.191  0.6927 -0.2363 -1.3204
 1155SOL    HW2 3598   0.066   0.495   3.339 -1.9329 -0.1994 -0.7615
 1156SOL     OW 3599   2.717   0.198   0.131  0.9257  0.2176 -0.2813
 1156SOL    HW1 3600   2.790   0.238   0.177  0.3436 -0.7553  1.5938
 1156SOL    HW2 3601   2.648   0.265   0.134  1.2509  0.5823 -0.7596
 1157SOL     OW 3602   3.562   2.866   0.203  0.4232  0.1447 -0.1133
 1157SOL    HW1 3603   3.567   2.787   0.256  0.6052  0.0452 -0.2759
 1157SOL    HW2 3604   3.637   2.860   0.144  1.0633  0.9715  0.6042
 1158SOL     OW 3605   0.486   0.252   2.968  0.1775  0.8468 -0.6665
 1158SOL    HW1 3606   0.482   0.166   2.925 -1.7159  0.7153 -0.3208
 1158SOL    HW2 3607   0.555   0.299   2.922  0.3341 -0.3895 -1.7499
 1159SOL     OW 3608   3.440   0.241   1.272 -0.1716 -0.5688  0.4326
 1159SOL    HW1 3609   3.523   0.194   1.277 -1.4542 -3.0502  0.1233
 1159SOL    HW2 3610   3.375   0.178   1.301 -2.1601  0.6995 -0.9679
 1160SOL     OW 3611   3.258   3.602   2.640  0.7971  0.7040 -0.2617
 1160SOL    HW1 3612   3.237   3.669   2.575  1.4951 -0.7275 -2.0510
 1160SOL    HW2 3613   3.181   3.598   2.697  0.2602  2.1654 -0.8381
 1161SOL     OW 3614   0.445   1.212   1.005  0.6613  0.2084 -0.1209
 1161SOL    HW1 3615   0.455   1.213   1.100 -0.7999 -0.8546  0.0842
 1161SOL    HW2 3616   0.351   1.201   0.990  0.9374 -0.4366 -1.6717
 1162SOL     OW 3617   3.082   3.538   1.924  0.1685  0.5923 -0.4180
 1162SOL    HW1 3618   3.025   3.489   1.865  1.6661  0.0872 -1.5270
 1162SOL    HW2 3619   3.103   3.476   1.994 -0.4929  0.7214 -0.1047
 1163SOL     OW 3620   2.202   1.310   1.947  0.3439 -0.6075 -0.4379
 1163SOL    HW1 3621   2.287   1.286   1.984  0.3314 -0.4550 -0.3091
 1163SOL    HW2 3622   2.222   1.384   1.890  0.0863  0.3941  0.7196
 1164SOL     OW 3623   0.543   0.278   0.303  0.1309 -0.0671  0.4800
 1164SOL    HW1 3624   0.543   0.185   0.281 -1.9190 -0.2096  0.8221
 1164SOL    HW2 3625   0.552   0.323   0.219  0.9408 -0.5684  0.2922
 1165SOL     OW 3626   3.382   0.771   1.829  0.7620  0.5250 -0.1678
 1165SOL    HW1 3627   3.337   0.686   1.832  0.9030  0.4785  0.7200
 1165SOL    HW2 3628   3.361   0.805   1.742 -1.9326  1.0055  0.5641
 1166SOL     OW 3629   0.688   2.873   3.695  0.1521  0.1085  0.1138
 1166SOL    HW1 3630   0.680   2.854   3.789 -0.6699 -1.7749 -0.2889
 1166SOL    HW2 3631   0.769   2.829   3.669  0.2398  0.4003 -0.1019
 1167SOL     OW 3632   0.666   3.715   3.362  0.0912 -0.4074  0.0221
 1167SOL    HW1 3633   0.762   3.712   3.365  0.2390  2.2347  0.0308
 1167SOL    HW2 3634   0.639   3.677   3.446  1.2088  0.0248  0.6070
 1168SOL     OW 3635   0.443   3.611   0.454 -0.3789  0.3196 -0.8926
 1168SOL    HW1 3636   0.404   3.588   0.370 -0.0973  2.0116 -1.5197
 1168SOL    HW2 3637   0.527   3.651   0.432  1.6969 -2.8762  0.3914
 1169SOL     OW 3638   2.968   3.066   1.368  0.5638  0.4148  0.4952
 1169SOL    HW1 3639   2.968   3.118   1.287 -1.3052  2.6582  1.8111
 1169SOL    HW2 3640   2.877   3.066   1.396  1.2733  0.3758  3.0076
 1170SOL     OW 3641   0.400   0.865   3.108  0.4273 -0.4425 -0.0664
 1170SOL    HW1 3642   0.306   0.854   3.123  0.4338 -0.0971  0.2422
 1170SOL    HW2 3643   0.441   0.799   3.164  0.4574  0.9205  1.6106
 1171SOL     OW 3644   1.183   2.250   2.907  0.1872 -0.7497 -0.0850
 1171SOL    HW1 3645   1.106   2.217   2.862  0.9231 -1.9939 -0.4774
 1171SOL    HW2 3646   1.254   2.192   2.879  1.2433  0.2824  0.3632
 1172SOL     OW 3647   1.890   0.302   3.621 -0.0181 -0.1380  0.6637
 1172SOL    HW1 3648   1.931   0.257   3.694 -1.9055 -3.3949 -0.1091
 1172SOL    HW2 3649   1.796   0.297   3.640 -0.6270 -1.8587 -2.2742
 1173SOL     OW 3650   3.084   1.241   1.642  0.2246  0.3844  0.2865
 1173SOL    HW1 3651   3.002   1.291   1.633 -0.7575 -1.3816 -1.3849
 1173SOL    HW2 3652   3.096   1.232   1.736 -0.6156  2.0657  0.5917
 1174SOL     OW 3653   1.098   2.693   2.003 -0.7248  0.7134 -0.1863
 1174SOL    HW1 3654   1.071   2.644   2.081 -0.8013 -1.9359 -1.7636
 1174SOL    HW2 3655   1.190   2.670   1.992 -1.0987 -0.2083 -1.6847
 1175SOL     OW 3656   1.139   3.058   1.693  0.2540 -0.6071  0.3618
 1175SOL    HW1 3657   1.229   3.054   1.662  0.1749  0.9252 -0.1504
 1175SOL    HW2 3658   1.129   3.146   1.728 -0.7202 -1.1372  1.5025
 1176SOL     OW 3659   0.010   1.561   3.717  0.7375  0.3551 -0.2137
 1176SOL    HW1 3660   0.066   1.522   3.785  0.6116  1.0852  0.3157
 1176SOL    HW2 3661   0.069   1.578   3.644  1.0542  0.4236  0.0582
 1177SOL     OW 3662   0.517   3.189   0.809 -0.3125  0.5317  0.1646
 1177SOL    HW1 3663   0.593   3.135   0.789 -0.6197  0.4141 -0.6979
 1177SOL    HW2 3664   0.449   3.127   0.835 -0.0950  0.6444  1.0585
 1178SOL     OW 3665   2.247   1.331   1.362 -0.0526  0.5417 -0.0233
 1178SOL    HW1 3666   2.285   1.305   1.278  1.7287  0.1659  0.8438
 1178SOL    HW2 3667   2.194   1.256   1.389 -0.9331  0.8143 -0.9783
 1179SOL     OW 3668   1.069   2.525   1.771  0.0457 -0.3106  0.1500
 1179SOL    HW1 3669   1.002   2.458   1.788 -2.0181  1.1120 -1.7898
 1179SOL    HW2 3670   1.050   2.594   1.834  0.1220 -0.1921  0.0429
 1180SOL     OW 3671   2.302   1.611   2.177  0.3431  0.1589  0.6702
 1180SOL    HW1 3672   2.326   1.588   2.087 -0.4140  0.5791  0.3535
 1180SOL    HW2 3673   2.352   1.691   2.194 -0.6226  0.9063  0.0908
 1181SOL     OW 3674   3.429   3.545   2.230  0.0356 -0.2827 -0.0600
 1181SOL    HW1 3675   3.444   3.452   2.241 -1.1184 -0.6416 -1.2320
 1181SOL    HW2 3676   3.458   3.585   2.312 -1.3243 -1.8997  1.2638
 1182SOL     OW 3677   1.925   1.452   1.005 -0.0701 -0.1870 -0.6429
 1182SOL    HW1 3678   1.873   1.531   0.994  2.0385  1.6558  1.3878
 1182SOL    HW2 3679   1.865   1.380   0.983 -2.2207  1.8952 -2.1027
 1183SOL     OW 3680   2.301   3.016   0.947  0.1084  0.0534 -0.9452
 1183SOL    HW1 3681   2.264   3.082   0.889  0.7791  0.6922 -0.6606
 1183SOL    HW2 3682   2.320   3.063   1.028 -0.0779 -0.6534 -0.4815
 1184SOL     OW 3683   2.156   0.244   2.836 -0.8249 -0.2536 -0.7046
 1184SOL    HW1 3684   2.142   0.228   2.742  0.4079 -1.4667 -0.7130
 1184SOL    HW2 3685   2.194   0.163   2.869  0.2975  0.7099  0.5040
 1185SOL     OW 3686   0.709   3.250   1.582  0.0995 -0.3546  0.0446
 1185SOL    HW1 3687   0.775   3.226   1.517 -1.5950 -1.7141 -1.2552
 1185SOL    HW2 3688   0.663   3.325   1.544 -1.4925 -1.7195 -0.7947
 1186SOL     OW 3689   0.074   3.499   2.978 -0.3536  0.4941 -1.0843
 1186SOL    HW1 3690   0.122   3.417   2.990 -1.3941  0.0675  0.3596
 1186SOL    HW2 3691   0.039   3.520   3.064  1.4904  3.5395 -0.9338
 1187SOL     OW 3692   1.840   2.139   1.966  0.2929  0.0045  0.1129
 1187SOL    HW1 3693   1.846   2.087   1.886  0.6596  0.7961 -0.3934
 1187SOL    HW2 3694   1.928   2.173   1.979 -0.0778  1.0277  0.0579
 1188SOL     OW 3695   1.208   3.670   0.759  0.8246  0.5977  0.7630
 1188SOL    HW1 3696   1.120   3.708   0.757  1.3030  1.7506  0.3669
 1188SOL    HW2 3697   1.248   3.700   0.677  0.5051 -2.6811 -0.7158
 1189SOL     OW 3698   3.493   1.773   2.873 -0.3893  0.3326 -0.2544
 1189SOL    HW1 3699   3.516   1.865   2.879  0.4900  0.2454 -1.7971
 1189SOL    HW2 3700   3.469   1.760   2.781  1.9174 -1.4697 -0.7066
 1190SOL     OW 3701   0.348   0.286   2.527 -0.7116 -0.2607  0.2342
 1190SOL    HW1 3702   0.391   0.283   2.442 -0.4822 -0.7670  0.3658
 1190SOL    HW2 3703   0.255   0.298   2.506 -0.7560 -1.1608 -0.1158
 1191SOL     OW 3704   1.597   3.621   1.791  0.2874 -0.3006  0.0714
 1191SOL    HW1 3705   1.594   3.637   1.885  0.1027 -0.4088  0.0825
 1191SOL    HW2 3706   1.660   3.686   1.758  0.8847 -0.7176  0.3629
 1192SOL     OW 3707   2.816   0.893   1.722 -0.4838 -0.0174  0.1123
 1192SOL    HW1 3708   2.781   0.807   1.700  1.2427 -0.8897  0.5491
 1192SOL    HW2 3709   2.908   0.890   1.694 -0.0027  1.1594  1.4215
 1193SOL     OW 3710   2.308   1.812   0.699  0.0912  0.4535  0.0917
 1193SOL    HW1 3711   2.306   1.807   0.794  0.8021 -1.0045  0.0576
 1193SOL    HW2 3712   2.229   1.861   0.676 -0.9831 -0.6046  1.3516
 1194SOL     OW 3713   1.426   3.687   1.443  0.3888  0.5810  0.6474
 1194SOL    HW1 3714   1.521   3.685   1.450  0.4752  1.7206 -0.0195
 1194SOL    HW2 3715   1.396   3.719   1.528  0.5178 -0.7227  1.2159
 1195SOL     OW 3716   2.581   0.291   0.541  0.0861  0.0707 -0.0786
 1195SOL    HW1 3717   2.537   0.258   0.463  1.4385 -0.1247 -0.7992
 1195SOL    HW2 3718   2.664   0.327   0.508  1.5633 -1.7341  1.4681
 1196SOL     OW 3719   1.205   1.985   2.593  0.1249  0.1513 -0.4230
 1196SOL    HW1 3720   1.241   1.897   2.585 -0.2395  0.1118 -1.9401
 1196SOL    HW2 3721   1.269   2.032   2.646  0.6783 -0.8393 -0.1914
 1197SOL     OW 3722   3.199   0.562   1.760 -0.1821  0.6726  0.2425
 1197SOL    HW1 3723   3.268   0.498   1.743 -1.5341 -1.2156  1.5194
 1197SOL    HW2 3724   3.163   0.582   1.673 -1.8111 -2.7924 -0.0238
 1198SOL     OW 3725   1.946   1.574   3.021  0.3771 -0.7355  0.0832
 1198SOL    HW1 3726   1.970   1.540   2.935 -0.1598 -0.0913 -0.3397
 1198SOL    HW2 3727   1.923   1.666   3.004  0.6180 -0.5061  0.9773
 1199SOL     OW 3728   1.254   1.661   0.080 -0.0374  0.6654  0.4584
 1199SOL    HW1 3729   1.244   1.756   0.073  2.0282  1.0907  2.2620
 1199SOL    HW2 3730   1.289   1.635  -0.005  0.2685  1.6708  0.2621
 1200SOL     OW 3731   1.408   1.175   1.087 -0.1831 -0.2164 -0.3498
 1200SOL    HW1 3732   1.455   1.100   1.052  0.8650 -0.0494  0.6345
 1200SOL    HW2 3733   1.315   1.152   1.078  0.1060 -1.2262 -0.8841
 1201SOL     OW 3734   1.337   1.243   0.627  0.4310  0.1428  0.2382
 1201SOL    HW1 3735   1.348   1.174   0.562  1.1309  1.0797 -0.6669
 1201SOL    HW2 3736   1.245   1.269   0.620  0.2929 -0.3430  0.2329
 1202SOL     OW 3737   0.761   1.152   0.592  0.4929  0.1594  0.3286
 1202SOL    HW1 3738   0.822   1.209   0.639  1.3090 -0.2446 -0.2165
 1202SOL    HW2 3739   0.790   1.156   0.501 -0.2048 -0.1639  0.0841
 1203SOL     OW 3740   1.904   2.021   3.477  0.5849  0.1742 -0.7016
 1203SOL    HW1 3741   1.950   1.963   3.415  0.8095  1.4056 -1.7314
 1203SOL    HW2 3742   1.974   2.059   3.531  0.3699 -1.0699  0.5053
 1204SOL     OW 3743   0.980   0.025   0.267  0.1441  0.8105  0.0853
 1204SOL    HW1 3744   1.058  -0.021   0.235  0.1091  0.5506  0.3769
 1204SOL    HW2 3745   0.994   0.033   0.361 -1.3859 -1.6060  0.5974
 1205SOL     OW 3746   1.528   3.334   3.005  0.1159  0.3714 -0.2183
 1205SOL    HW1 3747   1.458   3.288   3.052  0.9956 -0.5856  0.2068
 1205SOL    HW2 3748   1.539   3.285   2.924  0.8728 -0.0343  0.1132
 1206SOL     OW 3749   2.202   1.443   1.701  0.1204  0.3524 -0.2434
 1206SOL    HW1 3750   2.205   1.358   1.657 -2.0724 -0.6306  1.2994
 1206SOL    HW2 3751   2.112   1.473   1.688  0.9028  2.5820 -0.9262
 1207SOL     OW 3752   0.794   1.715   2.565  0.3692  0.4896  0.7540
 1207SOL    HW1 3753   0.756   1.659   2.633  1.1335  0.3776  1.0945
 1207SOL    HW2 3754   0.887   1.695   2.566  0.6952  1.9263  1.0390
 1208SOL     OW 3755   0.009   2.199   3.746  0.6922 -0.1507 -0.1960
 1208SOL    HW1 3756   0.048   2.264   3.686  1.3403  0.5756  0.9790
 1208SOL    HW2 3757   0.024   2.115   3.703  1.3761  0.3312 -0.9333
 1209SOL     OW 3758   0.422   0.356   1.446 -0.6012 -1.1548  0.0689
 1209SOL    HW1 3759   0.391   0.423   1.385  0.7632 -1.5035 -1.0695
 1209SOL    HW2 3760   0.354   0.289   1.444 -0.7075 -1.0317 -0.8759
 1210SOL     OW 3761   2.321   1.964   2.162 -0.2282  0.1387  0.0651
 1210SOL    HW1 3762   2.332   2.049   2.204  1.2543 -0.2666  0.5255
 1210SOL    HW2 3763   2.275   1.910   2.226  1.4032 -0.2660  0.9208
 1211SOL     OW 3764   1.070   1.439   2.040 -0.2385  0.5827  0.4953
 1211SOL    HW1 3765   1.000   1.374   2.033 -1.6790  1.8170  2.3143
 1211SOL    HW2 3766   1.136   1.398   2.096  0.8310 -0.7913 -1.6552
 1212SOL     OW 3767   2.754   0.028   0.392  0.0931  0.5370 -0.0943
 1212SOL    HW1 3768   2.795   0.012   0.307  0.8050  0.2444  0.2883
 1212SOL    HW2 3769   2.742   0.122   0.396 -0.9086  0.4566 -0.9436
 1213SOL     OW 3770   0.421   3.358   0.979  0.1164 -0.1587 -0.5466
 1213SOL    HW1 3771   0.341   3.405   0.956 -0.5267 -0.6921  0.5037
 1213SOL    HW2 3772   0.438   3.300   0.905 -0.4594 -0.0255 -0.7890
 1214SOL     OW 3773   2.594   2.598   0.597 -0.3247  0.3624 -0.2491
 1214SOL    HW1 3774   2.675   2.595   0.546 -0.4025 -0.8779 -0.3185
 1214SOL    HW2 3775   2.528   2.560   0.539 -1.0002  1.4326 -0.2250
 1215SOL     OW 3776   1.842   3.492   2.876 -0.4903 -0.3618 -0.0490
 1215SOL    HW1 3777   1.757   3.450   2.883  0.0137 -1.3859  0.0877
 1215SOL    HW2 3778   1.883   3.453   2.799 -0.1265  0.0873 -0.0885
 1216SOL     OW 3779   0.226   2.305   0.482 -0.1278  0.4329 -0.5348
 1216SOL    HW1 3780   0.313   2.302   0.442  1.1375 -0.5253  2.0404
 1216SOL    HW2 3781   0.230   2.378   0.544 -0.6803 -0.3787  0.5005
 1217SOL     OW 3782   0.169   2.858   2.086  0.7185  0.3321 -0.4480
 1217SOL    HW1 3783   0.215   2.900   2.159 -0.5475  1.1176 -0.0702
 1217SOL    HW2 3784   0.187   2.913   2.011  1.6152 -0.2058 -0.6504
 1218SOL     OW 3785   2.161   0.708   0.284 -0.2993 -0.6972 -0.0105
 1218SOL    HW1 3786   2.170   0.744   0.373  0.0932  0.2662 -0.4366
 1218SOL    HW2 3787   2.233   0.746   0.235 -0.2888 -1.5308 -0.6615
 1219SOL     OW 3788   3.505   2.420   3.622 -0.4276 -0.0949  0.5744
 1219SOL    HW1 3789   3.416   2.440   3.651 -0.1455 -0.8687  2.0602
 1219SOL    HW2 3790   3.495   2.349   3.558 -0.8165 -1.0178  1.6307
 1220SOL     OW 3791   3.013   1.521   1.844 -0.0362  0.4911  0.6310
 1220SOL    HW1 3792   3.036   1.558   1.758  0.4492 -0.1073  0.4948
 1220SOL    HW2 3793   2.918   1.526   1.847  0.0163  1.7817  0.6356
 1221SOL     OW 3794   3.165   2.164   2.826 -0.1776  0.7560 -0.0172
 1221SOL    HW1 3795   3.165   2.121   2.911 -2.0051  2.7570  1.0884
 1221SOL    HW2 3796   3.115   2.106   2.769 -0.0842  0.0410  0.6273
 1222SOL     OW 3797   3.155   2.626   0.454  0.9570  0.2682  0.7318
 1222SOL    HW1 3798   3.215   2.555   0.431  0.9980  0.3004  0.7405
 1222SOL    HW2 3799   3.209   2.705   0.452  0.4521  0.6136 -1.4197
 1223SOL     OW 3800   0.598   1.650   1.966 -0.0360  0.3016 -0.2557
 1223SOL    HW1 3801   0.684   1.613   1.951 -0.1693  0.3449 -1.1507
 1223SOL    HW2 3802   0.580   1.703   1.888 -0.1347  1.7075  0.6748
 1224SOL     OW 3803   2.922   0.600   0.422 -0.7142  0.3988  0.2896
 1224SOL    HW1 3804   2.881   0.579   0.338  0.0728 -1.8608  0.3879
 1224SOL    HW2 3805   2.999   0.652   0.400 -0.6237 -0.0119 -0.3843
 1225SOL     OW 3806   1.004   3.435   2.076  0.1758  0.5369 -0.2109
 1225SOL    HW1 3807   0.999   3.389   2.160 -1.1395  1.9026  0.5040
 1225SOL    HW2 3808   1.086   3.485   2.081  0.9714 -0.6810 -0.4832
 1226SOL     OW 3809   3.614   0.709   0.246 -0.2872 -0.3622  0.0092
 1226SOL    HW1 3810   3.672   0.786   0.250 -0.4412 -0.3006  1.2374
 1226SOL    HW2 3811   3.663   0.640   0.291 -0.3735 -0.8589 -0.6390
 1227SOL     OW 3812   3.085   3.477   0.084 -0.3583  0.2244 -0.3307
 1227SOL    HW1 3813   3.083   3.455   0.178 -1.5005  1.7352  0.0478
 1227SOL    HW2 3814   3.178   3.486   0.064 -0.1292  1.8343  1.1902
 1228SOL     OW 3815   0.811   2.370   1.484  0.1150  0.3703 -0.4851
 1228SOL    HW1 3816   0.758   2.442   1.518 -0.3682  0.1918 -0.8544
 1228SOL    HW2 3817   0.771   2.291   1.520 -0.5508  0.1582 -1.6217
 1229SOL     OW 3818   0.003   3.308   1.507 -0.4472 -0.3988 -0.0044
 1229SOL    HW1 3819   0.088   3.275   1.477  0.1735 -1.0234  2.2366
 1229SOL    HW2 3820  -0.051   3.229   1.517 -0.7892 -0.1573  0.0629
 1230SOL     OW 3821   1.209   3.742   1.266  0.0608  0.0565  0.3305
 1230SOL    HW1 3822   1.289   3.772   1.308  0.6179  2.6901 -2.2494
 1230SOL    HW2 3823   1.238   3.692   1.189 -0.9172 -3.6429  2.1244
 1231SOL     OW 3824   2.371   0.702   2.746  0.0629 -0.8802  0.1759
 1231SOL    HW1 3825   2.377   0.607   2.759  0.0236 -0.9426 -0.2443
 1231SOL    HW2 3826   2.395   0.739   2.831  0.3526 -1.2596  0.2634
 1232SOL     OW 3827   0.554   1.358   0.808  0.8760  0.3944 -0.3380
 1232SOL    HW1 3828   0.492   1.327   0.874  1.1162 -0.1538 -0.3676
 1232SOL    HW2 3829   0.558   1.287   0.744 -1.0692  1.7652 -2.1581
 1233SOL     OW 3830   0.420   0.047   0.150  0.2288 -0.2631 -0.2200
 1233SOL    HW1 3831   0.442   0.061   0.058  0.8652 -0.3302 -0.0870
 1233SOL    HW2 3832   0.402  -0.047   0.157  0.7376 -0.3618 -0.1724
 1234SOL     OW 3833   2.067   2.205   3.153  0.1180  0.7035  0.0869
 1234SOL    HW1 3834   2.099   2.295   3.156  1.3807  0.2713  3.3286
 1234SOL    HW2 3835   2.143   2.154   3.127  0.2792  0.3205  1.2540
 1235SOL     OW 3836   3.252   0.946   2.005  0.5888 -0.2007  0.1116
 1235SOL    HW1 3837   3.312   0.958   2.079 -0.7375  0.3159  1.1425
 1235SOL    HW2 3838   3.309   0.922   1.932  1.9127 -1.0256  1.3593
 1236SOL     OW 3839   1.629   2.047   2.916 -0.6190  0.3887 -0.1441
 1236SOL    HW1 3840   1.666   2.127   2.877 -0.4327 -0.3006 -1.4335
 1236SOL    HW2 3841   1.700   2.011   2.969 -0.5079  0.7557 -0.0394
 1237SOL     OW 3842   0.324   2.647   1.951  0.7181  0.6110 -0.2919
 1237SOL    HW1 3843   0.316   2.559   1.988  0.2320  0.5713 -0.4861
 1237SOL    HW2 3844   0.249   2.695   1.985 -0.9970 -0.0332 -2.8496
 1238SOL     OW 3845   1.148   1.495   1.481 -0.5404 -0.2988  0.0634
 1238SOL    HW1 3846   1.165   1.495   1.575  0.7995 -1.0121 -0.1592
 1238SOL    HW2 3847   1.179   1.410   1.451 -1.0923 -0.1386 -1.0102
 1239SOL     OW 3848   1.740   3.310   1.150  0.3852 -0.4290 -0.7541
 1239SOL    HW1 3849   1.770   3.344   1.234  3.2465 -2.5512 -0.7630
 1239SOL    HW2 3850   1.703   3.224   1.171  1.4912 -1.1500 -1.6553
 1240SOL     OW 3851   2.812   1.796  -0.024 -0.0778  0.0736  0.0389
 1240SOL    HW1 3852   2.815   1.798   0.071 -0.7719 -0.6316  0.0873
 1240SOL    HW2 3853   2.741   1.735  -0.045  1.1621 -1.1193 -0.9405
 1241SOL     OW 3854   2.312   2.425   0.550  0.0747  0.0913  0.4344
 1241SOL    HW1 3855   2.333   2.445   0.459 -0.8229  0.3054  0.2670
 1241SOL    HW2 3856   2.256   2.347   0.546 -1.6713  1.2625  0.6244
 1242SOL     OW 3857   0.674   1.764   1.085  0.4410 -0.0822  0.0228
 1242SOL    HW1 3858   0.672   1.749   1.180 -0.5379  1.0466  0.1981
 1242SOL    HW2 3859   0.754   1.816   1.071  1.9878 -2.3457 -0.1501
 1243SOL     OW 3860   2.550   1.796   2.886  0.6242  0.3297 -0.3355
 1243SOL    HW1 3861   2.608   1.720   2.897  0.0093  0.1079  2.1619
 1243SOL    HW2 3862   2.582   1.859   2.951 -1.1696  0.6462  0.2907
 1244SOL     OW 3863   1.332   0.949   1.988  0.0628  0.0568  0.0102
 1244SOL    HW1 3864   1.398   0.951   1.919 -0.5272  2.8268 -0.6109
 1244SOL    HW2 3865   1.265   1.011   1.958 -0.7352  0.5528  2.5942
 1245SOL     OW 3866   2.784   1.482  -0.018  0.5011 -0.5956  0.5398
 1245SOL    HW1 3867   2.737   1.473   0.065  0.2782  1.1128  0.6418
 1245SOL    HW2 3868   2.804   1.392  -0.045  1.1596 -1.1482  2.7500
 1246SOL     OW 3869   0.530   0.397   3.527 -0.1416 -0.1960  0.4849
 1246SOL    HW1 3870   0.576   0.476   3.499 -0.5153 -0.4409 -0.9211
 1246SOL    HW2 3871   0.561   0.329   3.466 -1.0128 -0.7590  0.6597
 1247SOL     OW 3872   1.773   2.435   1.965 -0.2526 -0.0557 -0.6922
 1247SOL    HW1 3873   1.699   2.409   2.021  0.8860  0.1903  0.9868
 1247SOL    HW2 3874   1.834   2.361   1.971  0.4991  0.5772 -0.4492
 1248SOL     OW 3875   2.910   1.413   3.132  0.3443  0.3373  0.2826
 1248SOL    HW1 3876   2.840   1.349   3.113 -1.2687  2.3344 -0.8611
 1248SOL    HW2 3877   2.929   1.453   3.048  2.1701  0.5887  0.7869
 1249SOL     OW 3878   1.569   0.528   0.095  0.2147 -0.3682  0.2042
 1249SOL    HW1 3879   1.526   0.587   0.033  1.6218 -0.2688 -0.7125
 1249SOL    HW2 3880   1.515   0.534   0.174  0.6642  2.6897  0.4034
 1250SOL     OW 3881   3.144   2.276   1.352  0.1567 -0.1875  0.1413
 1250SOL    HW1 3882   3.098   2.282   1.436  1.2230 -1.0201  0.8081
 1250SOL    HW2 3883   3.224   2.327   1.366 -1.0833  2.4054 -1.4394
 1251SOL     OW 3884   1.791   1.711   2.318 -0.4642 -0.6625 -0.0038
 1251SOL    HW1 3885   1.743   1.738   2.397 -0.1592  0.2361 -0.1110
 1251SOL    HW2 3886   1.855   1.648   2.349  0.9549  1.0889  0.8359
 1252SOL     OW 3887   2.982   3.067   3.250 -0.2427  0.6875  0.1409
 1252SOL    HW1 3888   2.955   3.157   3.265  2.7236  1.4275  1.7565
 1252SOL    HW2 3889   2.975   3.025   3.336  0.0753 -0.1176 -0.2137
 1253SOL     OW 3890   3.328   1.306   2.140  0.7573 -0.2552  0.5521
 1253SOL    HW1 3891   3.243   1.319   2.099  1.0462  0.8177  0.2769
 1253SOL    HW2 3892   3.385   1.276   2.069  0.7711 -0.3388  0.5978
 1254SOL     OW 3893   2.378   3.675   3.368  0.1287  0.1549  0.2942
 1254SOL    HW1 3894   2.340   3.637   3.447  0.1119 -1.4997 -0.4613
 1254SOL    HW2 3895   2.444   3.736   3.400  0.5609 -0.9422  1.5839
 1255SOL     OW 3896   0.363   2.534   3.333 -0.0692 -0.6850  0.1829
 1255SOL    HW1 3897   0.293   2.599   3.341  0.9979  0.4459  0.6617
 1255SOL    HW2 3898   0.343   2.468   3.400 -0.7099 -0.3999  0.2730
 1256SOL     OW 3899   1.814   2.374   2.731 -0.2921 -0.0652  0.5250
 1256SOL    HW1 3900   1.795   2.377   2.824  1.3426  0.3425  0.8880
 1256SOL    HW2 3901   1.901   2.414   2.723 -0.1076 -0.6920 -1.0841
 1257SOL     OW 3902   2.627   3.422   0.026 -0.3070 -1.0449  0.5700
 1257SOL    HW1 3903   2.641   3.341   0.074  0.6619 -1.9587 -1.1521
 1257SOL    HW2 3904   2.567   3.398  -0.045 -2.0604  0.3615  1.4542
 1258SOL     OW 3905   0.056   2.762   3.519 -0.2917  0.2371 -0.0106
 1258SOL    HW1 3906   0.082   2.793   3.606 -0.1192  0.2343 -0.0624
 1258SOL    HW2 3907   0.128   2.786   3.462 -1.0344  1.5514 -0.4364
 1259SOL     OW 3908   1.794   0.989   1.708 -0.3072 -0.0534 -0.1884
 1259SOL    HW1 3909   1.760   0.994   1.619  1.1325  0.1262 -0.7576
 1259SOL    HW2 3910   1.794   0.895   1.728  1.5630 -0.3482 -1.3161
 1260SOL     OW 3911   0.692   3.326   2.160 -0.1606 -0.4937  0.4069
 1260SOL    HW1 3912   0.600   3.302   2.155  0.1836 -1.5599 -2.8993
 1260SOL    HW2 3913   0.728   3.305   2.074  2.2688  3.7485  0.1009
 1261SOL     OW 3914   2.668   3.276   1.720  0.3387 -0.1732 -0.5946
 1261SOL    HW1 3915   2.650   3.253   1.629  0.2352 -1.7703 -0.2065
 1261SOL    HW2 3916   2.604   3.225   1.771 -0.7309  1.9398  0.3295
 1262SOL     OW 3917   1.039   3.609   1.410 -0.1872  0.1275 -0.5433
 1262SOL    HW1 3918   0.996   3.666   1.473  0.6052  0.3439 -0.1861
 1262SOL    HW2 3919   1.107   3.664   1.371 -0.4128 -0.1192 -1.3062
 1263SOL     OW 3920   0.531   1.702   1.698  0.4537 -0.5113 -0.0429
 1263SOL    HW1 3921   0.456   1.669   1.648  0.3858 -0.8279  0.2670
 1263SOL    HW2 3922   0.549   1.788   1.660  1.5555 -1.4792 -1.8700
 1264SOL     OW 3923   0.228   2.017   0.612  0.0703  0.5144 -0.2839
 1264SOL    HW1 3924   0.152   2.062   0.575  0.7925  0.3132 -2.1376
 1264SOL    HW2 3925   0.264   1.967   0.538  2.7996  1.7091  0.1061
 1265SOL     OW 3926   2.187   0.782   0.564 -0.5379 -0.6649 -0.3249
 1265SOL    HW1 3927   2.261   0.813   0.615 -1.4541 -0.1365  0.7314
 1265SOL    HW2 3928   2.187   0.687   0.577 -0.8114 -0.5292  0.7729
 1266SOL     OW 3929   0.486   3.075   1.540 -0.3525 -0.0781 -0.6515
 1266SOL    HW1 3930   0.560   3.120   1.580 -0.5861 -1.0947  0.9964
 1266SOL    HW2 3931   0.439   3.144   1.493  1.6456  0.5760 -1.8214
 1267SOL     OW 3932   1.380   1.515   2.499 -0.2698 -0.0480  0.4310
 1267SOL    HW1 3933   1.335   1.586   2.452 -0.9158  1.0836  2.6346
 1267SOL    HW2 3934   1.322   1.439   2.488 -0.1269  0.0226 -1.0193
 1268SOL     OW 3935   0.055   1.925   3.628 -0.0142  0.3910 -0.0750
 1268SOL    HW1 3936   0.010   1.886   3.552 -1.0406  0.4761  0.4733
 1268SOL    HW2 3937  -0.004   1.909   3.701 -0.1845  2.4363  0.2840
 1269SOL     OW 3938   2.453   0.883   1.527 -0.4210 -0.4761 -0.6109
 1269SOL    HW1 3939   2.493   0.804   1.563  0.8550 -1.0764 -3.1193
 1269SOL    HW2 3940   2.415   0.855   1.444 -0.4087  1.4481 -1.3104
 1270SOL     OW 3941   1.196   1.216   2.499  0.2162 -0.6045 -0.4735
 1270SOL    HW1 3942   1.129   1.178   2.556  0.4556  0.7967  0.8234
 1270SOL    HW2 3943   1.278   1.178   2.530  0.2899 -0.2656 -0.2471
 1271SOL     OW 3944   2.190   0.127   3.145 -0.3558  0.4731 -0.2026
 1271SOL    HW1 3945   2.162   0.205   3.097  1.1672 -0.7094 -3.2850
 1271SOL    HW2 3946   2.109   0.080   3.165 -1.1092  1.5956 -0.5612
 1272SOL     OW 3947   3.740   0.827   1.149 -0.2186 -0.1137 -0.3381
 1272SOL    HW1 3948   3.671   0.761   1.146  0.6794 -1.0846 -0.2472
 1272SOL    HW2 3949   3.694   0.910   1.141 -1.4863 -0.6747  0.7654
 1273SOL     OW 3950   3.069   1.838   3.159  0.1529  0.0104 -0.4254
 1273SOL    HW1 3951   3.114   1.868   3.238  0.5405  1.5733 -1.1883
 1273SOL    HW2 3952   2.978   1.868   3.170  0.0116 -0.4799 -0.2278
 1274SOL     OW 3953   2.914   0.963   0.665 -0.0054  0.0489 -0.0554
 1274SOL    HW1 3954   2.979   1.032   0.675 -0.0146  0.1959 -0.8943
 1274SOL    HW2 3955   2.873   0.954   0.751  1.2978 -0.2264  0.5513
 1275SOL     OW 3956   1.005   2.844   1.363 -0.4865  0.7509  0.1337
 1275SOL    HW1 3957   0.914   2.820   1.344 -0.5456  1.4164 -0.4861
 1275SOL    HW2 3958   1.037   2.774   1.420 -0.1492 -1.7364 -2.8562
 1276SOL     OW 3959   0.971   2.732   0.712 -0.1839 -0.1918 -0.4781
 1276SOL    HW1 3960   0.981   2.803   0.649  0.8431  2.0028  1.9909
 1276SOL    HW2 3961   0.995   2.653   0.663 -0.1160  1.2899 -2.9853
 1277SOL     OW 3962   2.181   2.221   0.725 -0.3229 -0.3865 -0.6529
 1277SOL    HW1 3963   2.236   2.227   0.803 -0.8406  0.8640 -0.3482
 1277SOL    HW2 3964   2.134   2.138   0.733 -1.4597  0.3724  1.1299
 1278SOL     OW 3965   3.650   0.107   3.612 -0.2130  0.2152 -0.5946
 1278SOL    HW1 3966   3.698   0.182   3.577  0.9264  0.2898  1.0384
 1278SOL    HW2 3967   3.575   0.146   3.657  0.4688  0.4224  0.3969
 1279SOL     OW 3968   1.497   0.268   2.344  0.4113 -0.1587  0.2192
 1279SOL    HW1 3969   1.505   0.179   2.377  0.6716  0.1969  1.1375
 1279SOL    HW2 3970   1.582   0.308   2.361  0.4738  0.1161 -0.6759
 1280SOL     OW 3971   3.209   2.496   2.008 -0.1172 -0.6405 -0.3103
 1280SOL    HW1 3972   3.236   2.436   2.077 -1.0814 -2.0269 -1.0911
 1280SOL    HW2 3973   3.115   2.508   2.021 -0.1527 -0.2529 -0.8735
 1281SOL     OW 3974   3.544   3.369   1.857  0.0435  0.6501  0.2998
 1281SOL    HW1 3975   3.569   3.458   1.881  1.0374 -0.0028  1.7719
 1281SOL    HW2 3976   3.449   3.375   1.840 -0.0957  1.7893  1.3411
 1282SOL     OW 3977   0.920   1.938   1.070  0.2251  0.5470 -0.5658
 1282SOL    HW1 3978   0.873   1.949   1.152 -1.3458  2.3003 -1.6159
 1282SOL    HW2 3979   1.003   1.984   1.083 -0.3076  1.4105 -0.1921
 1283SOL     OW 3980   3.704   2.516   0.278  0.0645 -0.1297 -0.5101
 1283SOL    HW1 3981   3.652   2.450   0.232  0.0363 -0.1581 -0.4376
 1283SOL    HW2 3982   3.639   2.567   0.327  0.3076 -1.7122  1.5624
 1284SOL     OW 3983   3.556   3.595   3.584  0.3242 -0.2830  0.1225
 1284SOL    HW1 3984   3.570   3.687   3.561 -2.0402  0.9133  2.7853
 1284SOL    HW2 3985   3.511   3.558   3.509  2.5257  0.2639 -1.5698
 1285SOL     OW 3986   2.443   1.025   0.458  0.3288  0.3933  0.0361
 1285SOL    HW1 3987   2.381   1.021   0.531  0.4856  1.0432  0.2089
 1285SOL    HW2 3988   2.509   0.958   0.479 -0.2571 -0.2381 -0.1051
 1286SOL     OW 3989   1.960   0.601   2.065  0.0456 -0.5317  0.1766
 1286SOL    HW1 3990   2.052   0.589   2.085  0.0807  0.0952  0.4221
 1286SOL    HW2 3991   1.954   0.692   2.036 -0.4836 -0.5903  0.0918
 1287SOL     OW 3992   1.743   2.713   0.078 -0.6138 -0.1760  0.4431
 1287SOL    HW1 3993   1.725   2.807   0.074 -2.9876 -0.5932 -1.2374
 1287SOL    HW2 3994   1.670   2.677   0.128 -1.7453 -1.4392 -1.9343
 1288SOL     OW 3995   3.533   0.783   0.563 -0.1983  0.5985 -0.0254
 1288SOL    HW1 3996   3.608   0.831   0.527  1.1971 -1.0247  0.5679
 1288SOL    HW2 3997   3.469   0.850   0.584  1.8829  2.3013  1.2884
 1289SOL     OW 3998   0.029   0.999   0.439  0.6660  0.1383 -0.4120
 1289SOL    HW1 3999   0.103   0.962   0.392  1.2569 -1.3554  1.5623
 1289SOL    HW2 4000   0.053   1.090   0.455  1.1794  0.2076 -1.4619
 1290SOL     OW 4001   2.849   3.367   0.235  0.0883  0.3639  0.2988
 1290SOL    HW1 4002   2.931   3.360   0.285  0.9002 -1.8229 -1.1589
 1290SOL    HW2 4003   2.787   3.314   0.285  0.2939 -0.0339  0.1431
 1291SOL     OW 4004   2.038   3.469   0.765 -0.4811 -0.5399  0.1296
 1291SOL    HW1 4005   1.989   3.512   0.695 -0.9587 -0.7799  0.3089
 1291SOL    HW2 4006   2.004   3.508   0.845 -0.1457 -0.4756  0.2393
 1292SOL     OW 4007   1.906   1.490   1.782 -0.5408 -0.3653 -0.5940
 1292SOL    HW1 4008   1.932   1.488   1.874  1.1184 -0.0999 -1.0225
 1292SOL    HW2 4009   1.858   1.408   1.768 -1.5048 -0.0408  0.6778
 1293SOL     OW 4010   3.560   0.661   1.314  0.3343  0.2648 -0.2613
 1293SOL    HW1 4011   3.503   0.624   1.382 -0.3461  0.4719 -0.7003
 1293SOL    HW2 4012   3.645   0.669   1.356 -0.0762  0.3970  0.5784
 1294SOL     OW 4013   0.439   0.372   1.120  0.0505  0.2318 -0.1832
 1294SOL    HW1 4014   0.498   0.446   1.131 -1.0374  1.0148  0.6919
 1294SOL    HW2 4015   0.452   0.343   1.030  2.9199 -0.6676  0.4344
 1295SOL     OW 4016   3.537   2.092   1.932 -0.3155 -0.6149  0.6382
 1295SOL    HW1 4017   3.579   2.102   2.017 -0.3012 -0.4459  0.6121
 1295SOL    HW2 4018   3.487   2.173   1.920  0.7554 -0.0437 -0.1080
 1296SOL     OW 4019   0.405   0.131   1.881 -0.2904 -0.0735 -0.1057
 1296SOL    HW1 4020   0.356   0.135   1.799 -0.1808 -0.3506 -0.1867
 1296SOL    HW2 4021   0.496   0.148   1.856 -0.1050 -1.1132 -0.1899
 1297SOL     OW 4022   0.823   0.493   3.229 -0.3572  0.1458  0.3846
 1297SOL    HW1 4023   0.825   0.516   3.322 -0.1479  1.0860  0.1535
 1297SOL    HW2 4024   0.732   0.471   3.212 -0.3714 -0.1789  0.8442
 1298SOL     OW 4025   1.941   0.311   1.267 -0.0384  0.0964 -0.5997
 1298SOL    HW1 4026   2.029   0.346   1.252 -0.7021  0.9814 -2.9314
 1298SOL    HW2 4027   1.883   0.385   1.247 -1.3318 -0.4739  0.8609
 1299SOL     OW 4028   2.250   3.623   1.251  0.1020 -0.0673  0.0590
 1299SOL    HW1 4029   2.296   3.606   1.334  1.3690 -0.0623 -0.6198
 1299SOL    HW2 4030   2.163   3.586   1.264  0.7847 -1.4955  0.8482
 1300SOL     OW 4031   3.249   2.735   1.522  0.8162 -0.2769 -0.3079
 1300SOL    HW1 4032   3.307   2.687   1.581  0.6616  0.4980  0.5111
 1300SOL    HW2 4033   3.208   2.801   1.578 -1.3685 -1.2111 -0.7071
 1301SOL     OW 4034   1.132  -0.017   0.037 -0.3451 -0.2553  0.2891
 1301SOL    HW1 4035   1.184   0.019  -0.035  0.3298 -1.6715  0.0530
 1301SOL    HW2 4036   1.061   0.047   0.049  1.3839  1.7035  0.6008
 1302SOL     OW 4037   0.316   2.263   1.796  0.0645 -1.4727  0.0939
 1302SOL    HW1 4038   0.338   2.347   1.835 -3.1974 -0.5788  0.2498
 1302SOL    HW2 4039   0.377   2.201   1.837  3.3785  0.8387 -0.8831
 1303SOL     OW 4040   0.685   0.454   0.471  0.0982  0.2088 -0.2140
 1303SOL    HW1 4041   0.671   0.433   0.378  1.5051 -0.4886 -0.2928
 1303SOL    HW2 4042   0.630   0.391   0.518 -0.2409  0.2403 -0.5603
 1304SOL     OW 4043   3.388   3.245   3.660  0.0363  0.6051  0.0611
 1304SOL    HW1 4044   3.421   3.249   3.570  0.6726  1.7778  0.3329
 1304SOL    HW2 4045   3.390   3.336   3.690 -0.5517  0.2751  1.1349
 1305SOL     OW 4046   0.485   1.916   3.364 -0.1140  0.3330  0.5612
 1305SOL    HW1 4047   0.519   1.856   3.430  0.0597 -0.4168 -0.2021
 1305SOL    HW2 4048   0.546   1.908   3.290  0.3897  2.0648  0.7522
 1306SOL     OW 4049   3.493   3.174   1.456  0.5635  0.2499  0.4679
 1306SOL    HW1 4050   3.468   3.114   1.527  1.6511  0.3791  0.9729
 1306SOL    HW2 4051   3.412   3.186   1.406  0.0784 -0.8298  0.9510
 1307SOL     OW 4052   0.491   3.077   3.206  0.1774  0.1130  0.4158
 1307SOL    HW1 4053   0.501   2.999   3.261  0.0600 -1.2605 -1.4101
 1307SOL    HW2 4054   0.396   3.085   3.194  0.0313  1.7053  2.0803
 1308SOL     OW 4055   2.439   0.039   2.264  0.7697 -0.2087 -0.3306
 1308SOL    HW1 4056   2.378   0.063   2.334  1.9805  1.8676  0.1048
 1308SOL    HW2 4057   2.495  -0.027   2.304 -0.1067 -0.8831 -0.1836
 1309SOL     OW 4058   3.646   0.721   2.106 -0.1968 -0.1725 -0.0537
 1309SOL    HW1 4059   3.699   0.750   2.180  0.8454 -1.5829 -0.2158
 1309SOL    HW2 4060   3.682   0.636   2.082 -0.4618  0.2767 -2.2519
 1310SOL     OW 4061   1.493   0.351   0.513 -0.2821  0.3083 -0.1050
 1310SOL    HW1 4062   1.579   0.392   0.507  1.0800 -1.7907  2.9665
 1310SOL    HW2 4063   1.508   0.259   0.491 -2.1004  0.1789 -1.0186
 1311SOL     OW 4064   3.122   0.305   1.236  0.0763  0.3096  0.0529
 1311SOL    HW1 4065   3.186   0.323   1.305 -0.2548  1.6903  0.0266
 1311SOL    HW2 4066   3.158   0.347   1.158 -0.7206  0.8655 -0.0259
 1312SOL     OW 4067   1.206   2.981   3.301 -0.4009  0.4573 -0.6958
 1312SOL    HW1 4068   1.233   2.891   3.284 -0.9692  0.3169 -0.9097
 1312SOL    HW2 4069   1.115   2.973   3.331 -0.0993  0.8786  0.3650
 1313SOL     OW 4070   1.395   0.337   2.858  0.0008 -0.4992  0.3888
 1313SOL    HW1 4071   1.358   0.274   2.797 -0.2630  0.8665 -0.9453
 1313SOL    HW2 4072   1.330   0.407   2.863  1.5736  1.1524 -0.6757
 1314SOL     OW 4073   2.180   0.938   2.875  0.3744  0.8163 -0.0879
 1314SOL    HW1 4074   2.261   0.961   2.830  0.0980 -0.5338 -1.3412
 1314SOL    HW2 4075   2.167   1.008   2.939  2.9462  0.6325  0.7179
 1315SOL     OW 4076   1.160   2.272   2.194  0.0626 -0.2567  0.1319
 1315SOL    HW1 4077   1.201   2.312   2.117 -0.6768 -1.1028 -0.7264
 1315SOL    HW2 4078   1.218   2.200   2.216  0.3673  0.0921  0.4858
 1316SOL     OW 4079   2.533   2.459   2.957  1.4008 -0.1965 -0.2073
 1316SOL    HW1 4080   2.623   2.473   2.926  1.8875 -1.0538  0.7529
 1316SOL    HW2 4081   2.538   2.378   3.008  0.1175 -0.1405  0.0371
 1317SOL     OW 4082   1.306   1.331   0.080  0.5130  0.3754 -0.0798
 1317SOL    HW1 4083   1.372   1.393   0.114  0.0646  0.7292  0.1572
 1317SOL    HW2 4084   1.261   1.299   0.158 -0.1710  0.7879 -0.2988
 1318SOL     OW 4085   3.235   0.311   0.369 -0.0133  0.2353  0.5153
 1318SOL    HW1 4086   3.293   0.382   0.339 -1.3600  1.3974  0.5549
 1318SOL    HW2 4087   3.198   0.344   0.451 -3.0896  0.9339 -1.0224
 1319SOL     OW 4088   3.331   0.720   2.504 -0.3804 -0.0217 -0.0734
 1319SOL    HW1 4089   3.280   0.798   2.527 -0.3697 -0.2178  0.6567
 1319SOL    HW2 4090   3.422   0.752   2.498 -0.4361  0.1088 -0.2326
 1320SOL     OW 4091   0.997   0.240   0.952 -0.1894  0.2126 -0.4133
 1320SOL    HW1 4092   0.984   0.317   0.897  0.2528  0.3712 -0.2950
 1320SOL    HW2 4093   1.068   0.264   1.011  1.6072 -1.1357 -1.9300
 1321SOL     OW 4094   1.677   1.293   0.967  0.2428 -0.0599  0.2560
 1321SOL    HW1 4095   1.686   1.367   0.906 -0.1863 -0.1242  0.1057
 1321SOL    HW2 4096   1.590   1.305   1.006 -1.0346 -1.9453 -1.7750
 1322SOL     OW 4097   2.676   0.507   3.652  0.0973 -0.5074  0.2240
 1322SOL    HW1 4098   2.597   0.462   3.623  0.9168 -2.2276  0.5319
 1322SOL    HW2 4099   2.711   0.549   3.573 -0.0709 -1.4074 -0.3352
 1323SOL     OW 4100   2.719   0.741   1.997  0.3817 -0.0353  0.2713
 1323SOL    HW1 4101   2.758   0.678   2.056  3.5591  3.0537  1.8293
 1323SOL    HW2 4102   2.790   0.767   1.938 -1.3454  0.6576 -1.6396
 1324SOL     OW 4103   2.304   2.125   0.489 -0.0258 -0.3674 -0.3753
 1324SOL    HW1 4104   2.367   2.063   0.527 -1.4757 -1.2108  0.7309
 1324SOL    HW2 4105   2.260   2.164   0.565  0.3908  1.5625 -1.0727
 1325SOL     OW 4106   1.313   0.476   0.669 -0.4977 -0.0415  0.3986
 1325SOL    HW1 4107   1.396   0.450   0.629 -0.5617  0.0572  0.1991
 1325SOL    HW2 4108   1.272   0.533   0.604 -0.8424 -0.3016  0.3849
 1326SOL     OW 4109   0.704   1.170   2.981 -0.0533 -0.0896 -0.1074
 1326SOL    HW1 4110   0.799   1.174   2.990  0.1180  0.5567 -1.8184
 1326SOL    HW2 4111   0.680   1.254   2.943 -1.0858 -0.8898 -1.3186
 1327SOL     OW 4112   1.974   0.770   2.876 -0.1710 -0.3098  0.3194
 1327SOL    HW1 4113   1.894   0.822   2.874 -1.2842 -1.8946 -1.9057
 1327SOL    HW2 4114   2.042   0.832   2.901 -2.1610  0.8502  3.5609
 1328SOL     OW 4115   1.436   3.393   0.331  0.5305  0.1518 -0.1667
 1328SOL    HW1 4116   1.404   3.423   0.246 -0.0423 -2.4152 -0.9408
 1328SOL    HW2 4117   1.357   3.368   0.379  1.0246 -1.1482 -0.0053
 1329SOL     OW 4118   1.013   0.434   3.546 -0.7115 -0.2136 -0.4871
 1329SOL    HW1 4119   1.070   0.511   3.545 -0.9518 -0.0285 -0.1969
 1329SOL    HW2 4120   1.047   0.378   3.477 -0.1524 -0.1186 -0.2942
 1330SOL     OW 4121   2.991   3.025   2.712 -0.4174 -0.6291 -0.4065
 1330SOL    HW1 4122   2.951   3.098   2.665 -1.2515  0.1889  1.4391
 1330SOL    HW2 4123   3.084   3.029   2.691 -0.8723 -0.9075 -2.6839
 1331SOL     OW 4124   3.154   0.728   0.953  0.1546  0.1568  0.3327
 1331SOL    HW1 4125   3.234   0.678   0.932  0.3549  0.2715  0.8175
 1331SOL    HW2 4126   3.111   0.675   1.020 -0.0133  0.2628  0.3069
 1332SOL     OW 4127   1.915   0.083   0.692  0.3187  0.0601  1.0443
 1332SOL    HW1 4128   1.911   0.036   0.775  1.3936  1.8260  2.1698
 1332SOL    HW2 4129   1.962   0.164   0.712 -1.8202  1.8849 -0.6439
 1333SOL     OW 4130   1.153   0.212   2.379 -0.3593 -0.0676  0.5008
 1333SOL    HW1 4131   1.231   0.267   2.387 -1.1642  1.3384 -0.6920
 1333SOL    HW2 4132   1.103   0.230   2.458  1.2209 -2.2329  2.0808
 1334SOL     OW 4133   3.361   2.508   2.731 -0.1211 -0.0606  0.1185
 1334SOL    HW1 4134   3.339   2.449   2.803 -1.7439 -0.0725 -0.3582
 1334SOL    HW2 4135   3.304   2.584   2.743  0.3335  0.4055 -0.5579
 1335SOL     OW 4136   2.605   3.004   1.072  0.3125 -0.3037  0.5543
 1335SOL    HW1 4137   2.681   2.979   1.020  0.3822 -0.0530  0.5328
 1335SOL    HW2 4138   2.556   3.064   1.016  0.1399 -0.4027  0.5976
 1336SOL     OW 4139   0.351   2.221   2.683  0.2253  0.0307 -0.1686
 1336SOL    HW1 4140   0.381   2.146   2.632 -1.8921 -1.4026  0.5107
 1336SOL    HW2 4141   0.417   2.233   2.751 -0.9629 -3.6331  1.9170
 1337SOL     OW 4142   1.147   1.135   0.216 -0.4638 -0.1650 -0.0823
 1337SOL    HW1 4143   1.216   1.091   0.168 -0.2390  0.6340 -0.5133
 1337SOL    HW2 4144   1.160   1.108   0.307  1.4190  1.2019  0.1077
 1338SOL     OW 4145   2.748   2.843   1.310  0.2911 -0.5729 -0.4027
 1338SOL    HW1 4146   2.668   2.825   1.260 -0.2682  0.0363  0.2559
 1338SOL    HW2 4147   2.718   2.887   1.389  1.1888 -1.3170  0.3766
 1339SOL     OW 4148   3.316   3.679   1.811  0.3027 -0.1770  0.3693
 1339SOL    HW1 4149   3.388   3.665   1.749  1.7286  2.8759  1.1325
 1339SOL    HW2 4150   3.270   3.595   1.814  3.0145 -1.8688 -1.1933
 1340SOL     OW 4151   0.714   2.053   1.271 -0.9907  1.1274  0.8316
 1340SOL    HW1 4152   0.619   2.054   1.264 -0.9914  1.2121  0.8500
 1340SOL    HW2 4153   0.732   2.077   1.362 -1.0043 -0.7325  1.3668
 1341SOL     OW 4154   1.422   3.056   3.435 -0.1325 -0.2715 -0.0795
 1341SOL    HW1 4155   1.340   3.033   3.392  0.1650  1.7492 -1.9060
 1341SOL    HW2 4156   1.482   3.076   3.363  2.2275 -2.2713  1.1747
 1342SOL     OW 4157   1.040   1.620   2.622  0.0751 -0.1999  0.0799
 1342SOL    HW1 4158   1.064   1.598   2.531  0.8715 -0.8776  0.4413
 1342SOL    HW2 4159   1.123   1.640   2.665 -0.3224  0.3401  0.6105
 1343SOL     OW 4160   0.510   1.076   2.101 -0.4162  0.1854  0.5297
 1343SOL    HW1 4161   0.534   1.009   2.165  0.3376  1.2133  1.3532
 1343SOL    HW2 4162   0.432   1.118   2.137 -0.3140  0.3964  0.5083
 1344SOL     OW 4163   1.412   2.910   1.338 -0.1650 -0.2188 -0.2321
 1344SOL    HW1 4164   1.327   2.892   1.297 -0.3439 -1.3701  0.5825
 1344SOL    HW2 4165   1.463   2.831   1.322  0.0673 -0.3246  0.9584
 1345SOL     OW 4166   1.104   2.778   3.049  1.0931  0.3606 -0.2626
 1345SOL    HW1 4167   1.053   2.697   3.046 -0.0102  0.9993  0.5085
 1345SOL    HW2 4168   1.191   2.750   3.079  1.2261 -0.7423 -1.5701
 1346SOL     OW 4169   0.488   2.587   0.543  0.0521 -0.0103  0.0352
 1346SOL    HW1 4170   0.532   2.505   0.561 -0.5957 -0.4649 -0.4041
 1346SOL    HW2 4171   0.399   2.562   0.517  0.6334  0.6126 -2.9033
 1347SOL     OW 4172   0.061   0.270   1.825 -0.1758 -0.4629 -0.1239
 1347SOL    HW1 4173   0.070   0.336   1.756 -1.4871 -0.7426 -0.5832
 1347SOL    HW2 4174   0.067   0.186   1.780  0.0845 -0.6566  0.2664
 1348SOL     OW 4175   1.595   2.362   1.240  0.1218 -0.1796  0.1459
 1348SOL    HW1 4176   1.586   2.451   1.207 -0.5416 -0.9952 -2.0778
 1348SOL    HW2 4177   1.634   2.313   1.167  0.5676 -1.6894  1.3469
 1349SOL     OW 4178   2.332   2.181   1.960  0.6150  0.7558 -0.4193
 1349SOL    HW1 4179   2.345   2.094   1.924 -4.2244  0.4623 -2.2808
 1349SOL    HW2 4180   2.411   2.230   1.936  2.2756 -2.3308 -1.7806
 1350SOL     OW 4181   2.081   2.262   1.914  0.3132  0.4228 -0.1822
 1350SOL    HW1 4182   2.134   2.292   1.840 -0.2950  1.0409 -0.3742
 1350SOL    HW2 4183   2.141   2.207   1.965  1.4471  1.8710  0.1162
 1351SOL     OW 4184   3.664   0.758   3.442  0.4542 -0.3027 -0.9082
 1351SOL    HW1 4185   3.571   0.737   3.428 -0.1343 -0.3566  2.3592
 1351SOL    HW2 4186   3.703   0.675   3.469  1.1908 -0.0113 -1.0679
 1352SOL     OW 4187   3.063   1.340   2.459  0.1585 -0.3072 -0.1755
 1352SOL    HW1 4188   3.076   1.409   2.393  2.6239  0.4632  0.9975
 1352SOL    HW2 4189   3.104   1.263   2.420  1.0129 -0.0304  0.1673
 1353SOL     OW 4190   2.520   3.144   0.693 -0.1948 -0.0245 -0.6852
 1353SOL    HW1 4191   2.460   3.078   0.660 -0.3425 -0.8344  1.1071
 1353SOL    HW2 4192   2.606   3.103   0.691 -0.1112  0.1437 -0.6326
 1354SOL     OW 4193   1.808   0.990   2.301  0.2194  0.2387 -0.3331
 1354SOL    HW1 4194   1.866   1.066   2.302  2.3069 -1.1894 -2.4170
 1354SOL    HW2 4195   1.856   0.923   2.352 -0.3926 -0.4554 -0.6482
 1355SOL     OW 4196   2.125   2.892   1.523  0.0092 -0.6111 -0.0098
 1355SOL    HW1 4197   2.046   2.890   1.577 -0.0765 -1.4274 -0.1602
 1355SOL    HW2 4198   2.116   2.817   1.465  0.2807  0.0347 -0.9126
 1356SOL     OW 4199   0.866   2.077   0.476  0.4582 -0.6251  0.0501
 1356SOL    HW1 4200   0.856   2.093   0.570  0.3424 -0.0893 -0.0470
 1356SOL    HW2 4201   0.849   1.984   0.464 -0.2490 -0.5488  0.4589
 1357SOL     OW 4202   1.196   1.074   1.638  0.0635 -0.4061  1.1485
 1357SOL    HW1 4203   1.214   1.100   1.728  0.0786 -0.7307  1.2432
 1357SOL    HW2 4204   1.258   1.124   1.585 -0.1951  0.0645  1.2829
 1358SOL     OW 4205   3.083   1.746   0.518  0.0056 -0.5883  0.2601
 1358SOL    HW1 4206   3.011   1.685   0.535 -2.0109  1.7888  0.7386
 1358SOL    HW2 4207   3.116   1.770   0.604 -1.3856  1.3636  0.3173
 1359SOL     OW 4208   3.204   2.767   3.393  0.0203 -0.3939 -0.6446
 1359SOL    HW1 4209   3.207   2.804   3.481 -0.9000 -0.6784 -0.4872
 1359SOL    HW2 4210   3.132   2.704   3.395  0.8715 -1.4115 -1.2149
 1360SOL     OW 4211   1.856   0.311   2.915  0.9745 -0.6850 -0.3348
 1360SOL    HW1 4212   1.886   0.220   2.916  1.0761 -0.6450  0.1856
 1360SOL    HW2 4213   1.929   0.360   2.877  0.8696 -0.8351 -0.7389
 1361SOL     OW 4214   3.041   1.191   0.689  0.1963  0.5878  0.0219
 1361SOL    HW1 4215   3.081   1.216   0.605 -0.7013  1.6961 -0.1049
 1361SOL    HW2 4216   3.101   1.226   0.755 -0.8535  2.9706 -0.1549
 1362SOL     OW 4217   2.239   0.604   2.392  0.4264 -0.2011 -0.4518
 1362SOL    HW1 4218   2.263   0.521   2.433 -0.2442  0.9631  2.6151
 1362SOL    HW2 4219   2.213   0.660   2.466  0.3902  2.5801 -2.4236
 1363SOL     OW 4220   1.423   2.805   2.840 -0.2815 -0.3898  0.0240
 1363SOL    HW1 4221   1.506   2.766   2.814  0.0982 -0.1706  0.8971
 1363SOL    HW2 4222   1.408   2.773   2.928 -1.1205 -0.4110 -0.1188
 1364SOL     OW 4223   1.837   1.561   3.680 -0.3199  0.3307  0.2537
 1364SOL    HW1 4224   1.925   1.594   3.693  0.6278 -1.6660 -0.6249
 1364SOL    HW2 4225   1.781   1.617   3.733  1.3857  2.0557  0.2922
 1365SOL     OW 4226   1.378   1.390   0.866 -0.0637  0.5768 -0.6680
 1365SOL    HW1 4227   1.357   1.326   0.798 -1.3815  0.5801 -0.2956
 1365SOL    HW2 4228   1.350   1.348   0.948  0.4520  1.0294 -0.2509
 1366SOL     OW 4229   0.223   3.569   1.271 -0.1732 -0.5763  0.0476
 1366SOL    HW1 4230   0.257   3.627   1.202  2.9194 -1.2312  0.8683
 1366SOL    HW2 4231   0.240   3.481   1.238 -2.7845 -1.0531 -0.2050
 1367SOL     OW 4232   2.533   3.575   1.241 -0.0290  1.0235 -0.1526
 1367SOL    HW1 4233   2.445   3.563   1.204  0.2869  1.2566 -1.0173
 1367SOL    HW2 4234   2.579   3.626   1.174  0.3629  2.0686  0.8907
 1368SOL     OW 4235   1.576   1.712   1.248 -0.4453  0.3854 -0.2094
 1368SOL    HW1 4236   1.490   1.731   1.284 -0.8532  2.1592 -2.0031
 1368SOL    HW2 4237   1.563   1.710   1.153  1.6117  1.5472 -0.5779
 1369SOL     OW 4238   2.480   0.127   2.643 -0.1152  0.6229 -0.2818
 1369SOL    HW1 4239   2.447   0.087   2.723  1.0491  0.9540  0.3985
 1369SOL    HW2 4240   2.412   0.111   2.578 -1.5078  1.1644  0.9919
 1370SOL     OW 4241   0.993   0.997   2.232 -0.3180  0.1745  0.3313
 1370SOL    HW1 4242   1.081   1.034   2.225  0.8678 -2.5763 -0.4559
 1370SOL    HW2 4243   0.958   1.003   2.144  0.4688 -1.7981 -0.1587
 1371SOL     OW 4244   0.056   2.236   1.340  0.2122  0.1331  0.3288
 1371SOL    HW1 4245   0.043   2.155   1.389 -2.2894 -0.0307 -0.5021
 1371SOL    HW2 4246   0.088   2.299   1.405 -0.8965 -0.6567  1.6776
 1372SOL     OW 4247   3.209   0.218   1.741  0.3124  0.2903 -0.1191
 1372SOL    HW1 4248   3.290   0.232   1.790  0.8016 -0.5004 -0.6793
 1372SOL    HW2 4249   3.150   0.175   1.803 -0.2537  2.2034  0.7696
 1373SOL     OW 4250   0.663   3.541   2.883  0.4156  0.0216  0.0078
 1373SOL    HW1 4251   0.654   3.472   2.948  2.0994 -0.2012  0.0281
 1373SOL    HW2 4252   0.608   3.613   2.917  1.0601 -0.1874  1.5369
 1374SOL     OW 4253   2.504   3.411   0.697 -0.2276  0.1538 -0.1631
 1374SOL    HW1 4254   2.514   3.316   0.695 -1.5164  0.0254 -1.0186
 1374SOL    HW2 4255   2.562   3.443   0.627  2.2840  0.2657  1.7887
 1375SOL     OW 4256   3.468   0.472   1.795  0.4863  0.5854  0.0786
 1375SOL    HW1 4257   3.424   0.486   1.879 -1.3034 -1.4697 -0.4065
 1375SOL    HW2 4258   3.509   0.386   1.804  1.7611  1.0978 -0.5972
 1376SOL     OW 4259   3.399   1.819   2.625  0.3966  1.1448  0.1763
 1376SOL    HW1 4260   3.406   1.852   2.535  0.9837  0.2071 -0.1300
 1376SOL    HW2 4261   3.305   1.807   2.639  0.2669  1.7371 -0.1412
 1377SOL     OW 4262   1.056   0.215   1.348  0.0106  0.2302 -0.0929
 1377SOL    HW1 4263   1.126   0.155   1.322 -0.3905  0.0967 -0.8795
 1377SOL    HW2 4264   1.099   0.300   1.356  1.0369 -0.4240  3.0156
 1378SOL     OW 4265   1.645   2.679   0.977  0.3384 -0.9489  0.8612
 1378SOL    HW1 4266   1.735   2.673   1.010  0.9749 -0.7868 -0.7519
 1378SOL    HW2 4267   1.646   2.756   0.920 -0.9373 -0.7234  1.1207
 1379SOL     OW 4268   1.170   1.448   2.964  0.2370  0.4722  0.1119
 1379SOL    HW1 4269   1.241   1.385   2.960 -0.2758 -0.2042  1.0951
 1379SOL    HW2 4270   1.213   1.533   2.971  0.9891 -0.0111  1.9291
 1380SOL     OW 4271   1.314   2.491   3.141  0.2371  0.5677 -0.3903
 1380SOL    HW1 4272   1.237   2.478   3.086 -0.1050  1.8706 -0.2611
 1380SOL    HW2 4273   1.278   2.524   3.224  0.8787  0.3424 -0.0184
 1381SOL     OW 4274   1.624   1.961   2.039  0.6450 -0.3382  0.0756
 1381SOL    HW1 4275   1.685   2.034   2.041  0.7810 -0.3560 -1.7456
 1381SOL    HW2 4276   1.680   1.883   2.034  0.4834 -0.4882  0.5280
 1382SOL     OW 4277   1.993   1.630   0.761  0.0268 -0.4569  0.4343
 1382SOL    HW1 4278   1.903   1.653   0.786 -0.9580  1.7249 -3.9476
 1382SOL    HW2 4279   2.045   1.707   0.786 -0.1647 -0.0258 -0.4421
 1383SOL     OW 4280   2.189   0.253   1.544  0.4163  0.4036  0.0726
 1383SOL    HW1 4281   2.118   0.318   1.542 -1.7547 -1.8536 -0.3490
 1383SOL    HW2 4282   2.258   0.295   1.595 -1.4966  2.4150  1.1710
 1384SOL     OW 4283   1.137   0.156   2.022  0.1324 -0.5906  0.0614
 1384SOL    HW1 4284   1.177   0.097   2.086  2.0321  0.3575 -0.1666
 1384SOL    HW2 4285   1.192   0.235   2.025 -1.7178  0.7792 -0.3653
 1385SOL     OW 4286   0.999   1.772   0.214  0.3374  0.0661 -0.1786
 1385SOL    HW1 4287   0.959   1.857   0.197 -0.3279 -0.2269 -0.1037
 1385SOL    HW2 4288   1.092   1.784   0.191  0.2325  0.7813 -0.2462
 1386SOL     OW 4289   3.118   0.722   2.797 -0.1772  0.1232 -0.0146
 1386SOL    HW1 4290   3.081   0.731   2.884 -0.2765  1.1727 -0.1560
 1386SOL    HW2 4291   3.123   0.811   2.763  1.3227 -0.1059 -0.4775
 1387SOL     OW 4292   0.452   0.582   0.636 -0.2101 -0.3867  0.0213
 1387SOL    HW1 4293   0.433   0.646   0.704 -1.4492  0.8970 -1.4793
 1387SOL    HW2 4294   0.546   0.592   0.620 -0.3290  0.8712  0.0012
 1388SOL     OW 4295   2.796   0.632   1.691  0.0180  0.4654 -0.0910
 1388SOL    HW1 4296   2.842   0.615   1.773 -0.2393 -1.1759 -0.2502
 1388SOL    HW2 4297   2.866   0.632   1.625 -0.0390 -0.8843 -0.1851
 1389SOL     OW 4298   2.088   2.854   2.934  0.1822 -0.6230  0.4933
 1389SOL    HW1 4299   2.148   2.780   2.923 -0.3913 -0.8945 -0.9991
 1389SOL    HW2 4300   2.085   2.896   2.848 -1.4843 -0.4082  0.6251
 1390SOL     OW 4301   0.354   1.041   3.699  0.5907  0.1802 -0.1003
 1390SOL    HW1 4302   0.321   1.112   3.643  0.1922 -0.7311 -1.0645
 1390SOL    HW2 4303   0.305   0.964   3.670  3.0075 -1.0971 -1.0934
 1391SOL     OW 4304   2.791   3.635   3.593  0.1021  0.2562  0.0724
 1391SOL    HW1 4305   2.870   3.681   3.565  1.0972 -1.5012 -0.1124
 1391SOL    HW2 4306   2.733   3.705   3.623  1.1760  1.7150 -1.0705
 1392SOL     OW 4307   2.448   2.553   2.647 -0.1197 -0.1998  0.1509
 1392SOL    HW1 4308   2.473   2.484   2.708 -0.4407  0.5391  1.1440
 1392SOL    HW2 4309   2.531   2.593   2.622 -0.0945  0.6705  1.5424
 1393SOL     OW 4310   3.505   2.435   0.555  0.4707 -0.2959  0.2955
 1393SOL    HW1 4311   3.432   2.392   0.600  0.5623  1.5704  2.4505
 1393SOL    HW2 4312   3.583   2.389   0.586  0.3421 -1.2454 -0.7386
 1394SOL     OW 4313   3.447   0.324   3.325  0.1812  0.2295 -0.6623
 1394SOL    HW1 4314   3.431   0.249   3.382  1.1356 -1.2337 -2.2172
 1394SOL    HW2 4315   3.366   0.373   3.327 -0.7322 -1.2334 -0.1145
 1395SOL     OW 4316   2.177   3.696   0.975 -0.1348  0.0614 -0.0648
 1395SOL    HW1 4317   2.083   3.704   0.963 -0.1816  0.2213  0.3826
 1395SOL    HW2 4318   2.187   3.658   1.062  0.2558  2.1084  0.8460
 1396SOL     OW 4319   2.447   2.482   0.321 -1.2565  0.3117 -0.1757
 1396SOL    HW1 4320   2.395   2.407   0.291  0.1026 -0.2291 -1.2778
 1396SOL    HW2 4321   2.538   2.452   0.317 -0.6458  2.1106 -0.9467
 1397SOL     OW 4322   2.095   3.437   1.677 -0.2077  0.2176 -0.2224
 1397SOL    HW1 4323   2.059   3.381   1.609  0.7285 -0.5432 -0.1113
 1397SOL    HW2 4324   2.112   3.377   1.750  2.2871  0.3211 -0.6546
 1398SOL     OW 4325   3.056   0.928   1.614 -0.5351 -0.3644 -0.2398
 1398SOL    HW1 4326   3.104   0.989   1.670 -3.0545  0.2574  1.4150
 1398SOL    HW2 4327   3.055   0.970   1.528  2.7887 -0.9884 -0.7081
 1399SOL     OW 4328   3.122   2.619   1.307  0.0822  0.2497  0.0006
 1399SOL    HW1 4329   3.110   2.524   1.309 -3.2473  0.5294  0.9007
 1399SOL    HW2 4330   3.166   2.639   1.390 -2.3598 -0.3598  1.5874
 1400SOL     OW 4331   0.546   2.705   2.130  0.1126  0.1293  0.7642
 1400SOL    HW1 4332   0.486   2.682   2.059  1.3592 -2.5956  0.4527
 1400SOL    HW2 4333   0.498   2.680   2.210  0.2183 -0.6296  0.6026
 1401SOL     OW 4334   0.905   0.462   1.975 -0.3419  0.7969 -0.0321
 1401SOL    HW1 4335   0.850   0.390   2.006  0.0153  0.4043 -0.2993
 1401SOL    HW2 4336   0.995   0.431   1.987 -0.1851  1.1155 -0.3381
 1402SOL     OW 4337   2.454   0.430   2.778  0.0281 -0.2394  0.3776
 1402SOL    HW1 4338   2.359   0.433   2.776  0.0018  0.3565 -2.3836
 1402SOL    HW2 4339   2.476   0.341   2.748  0.3040  0.0991 -0.4511
 1403SOL     OW 4340   2.971   3.590   2.768  0.0893  0.0127  0.4946
 1403SOL    HW1 4341   2.948   3.667   2.715 -0.9402  0.4400  1.5108
 1403SOL    HW2 4342   2.973   3.623   2.858 -0.5176 -1.1658  0.9622
 1404SOL     OW 4343   1.364   3.518   2.282 -0.6143  0.8310  0.0606
 1404SOL    HW1 4344   1.313   3.452   2.236  1.1102 -0.6889  0.2148
 1404SOL    HW2 4345   1.309   3.596   2.280 -2.3054 -0.3104 -1.0002
 1405SOL     OW 4346   1.841   2.039   1.111 -0.5030 -0.5723 -0.0763
 1405SOL    HW1 4347   1.866   1.978   1.181 -0.6246  0.6019  1.0334
 1405SOL    HW2 4348   1.905   2.110   1.117 -2.4265  1.1764  1.0603
 1406SOL     OW 4349   3.014   3.232   2.528 -0.6507 -0.0051 -0.4859
 1406SOL    HW1 4350   3.090   3.193   2.485 -1.1782 -0.0107 -1.4341
 1406SOL    HW2 4351   3.022   3.326   2.508 -1.7165 -0.1983 -1.9282
 1407SOL     OW 4352   0.031   3.657   0.552  0.0114 -0.4152  0.2294
 1407SOL    HW1 4353   0.092   3.730   0.555 -2.0137  1.5683 -1.8748
 1407SOL    HW2 4354   0.067   3.598   0.486 -0.3214  0.7703 -1.0515
 1408SOL     OW 4355   1.449   1.814   2.218 -0.0332  0.0682 -0.4395
 1408SOL    HW1 4356   1.431   1.868   2.141  0.5324  1.7962  0.5805
 1408SOL    HW2 4357   1.526   1.855   2.258 -0.7767 -0.2868  1.4717
 1409SOL     OW 4358   2.909   0.075   2.636  0.1402  0.3386 -0.0364
 1409SOL    HW1 4359   2.940   0.166   2.634  0.3415  0.2756 -2.0683
 1409SOL    HW2 4360   2.822   0.080   2.677  0.0677  1.4748 -0.3011
 1410SOL     OW 4361   2.823   0.505   0.673  0.0172  0.2600  0.1260
 1410SOL    HW1 4362   2.874   0.541   0.600  0.5851 -0.0569  0.3574
 1410SOL    HW2 4363   2.735   0.492   0.637  0.3664 -0.1657 -0.5834
 1411SOL     OW 4364   3.464   1.100   2.424 -0.1636  0.7662  0.0981
 1411SOL    HW1 4365   3.497   1.153   2.351  3.4418 -0.1086  0.8828
 1411SOL    HW2 4366   3.461   1.160   2.498  0.8451  0.6208  0.2698
 1412SOL     OW 4367   3.537   2.898   1.874 -0.6892 -0.1395  0.4675
 1412SOL    HW1 4368   3.469   2.855   1.821 -0.8677 -0.4006  0.9043
 1412SOL    HW2 4369   3.572   2.966   1.817  0.2874 -1.4889 -0.6142
 1413SOL     OW 4370   2.001   2.836   1.189 -0.4343 -0.4752  0.2366
 1413SOL    HW1 4371   1.985   2.915   1.137 -0.7991  0.4061  1.6420
 1413SOL    HW2 4372   2.087   2.805   1.160 -0.8780 -0.3512 -1.2950
 1414SOL     OW 4373   1.454   2.401   1.589  0.2687 -0.7467 -0.3243
 1414SOL    HW1 4374   1.442   2.463   1.518  1.2467 -1.4175 -1.0959
 1414SOL    HW2 4375   1.441   2.453   1.669 -1.4220 -0.1132 -0.9626
 1415SOL     OW 4376   3.195   1.271   3.040  0.1954 -0.3785  0.2596
 1415SOL    HW1 4377   3.218   1.250   2.949  0.6780 -0.9169  0.4994
 1415SOL    HW2 4378   3.111   1.316   3.033 -0.5933 -1.8544 -0.3381
 1416SOL     OW 4379   3.528   0.037   2.120 -0.1713 -0.5952 -0.0305
 1416SOL    HW1 4380   3.485  -0.031   2.173  1.5117  0.1224  2.4116
 1416SOL    HW2 4381   3.610   0.056   2.166 -0.6483  3.2746 -0.3979
 1417SOL     OW 4382   0.537   2.042   0.645 -0.0439 -0.8430  0.3640
 1417SOL    HW1 4383   0.443   2.060   0.646  0.0305 -0.4651  1.5651
 1417SOL    HW2 4384   0.578   2.128   0.656  0.4628 -0.9611 -0.4824
 1418SOL     OW 4385   3.269   3.566   0.415 -0.0338 -0.1349  0.3051
 1418SOL    HW1 4386   3.251   3.577   0.508  0.7585 -1.5804  0.6595
 1418SOL    HW2 4387   3.346   3.620   0.398 -2.1779  3.0475 -0.3923
 1419SOL     OW 4388   0.499   2.017   2.537  0.2491 -0.6388  0.1544
 1419SOL    HW1 4389   0.477   1.926   2.514  0.1153 -0.3115 -1.0678
 1419SOL    HW2 4390   0.592   2.025   2.517  0.6727 -0.9564  1.8280
 1420SOL     OW 4391   2.718   0.793   3.261  0.5798 -0.1715  0.0205
 1420SOL    HW1 4392   2.643   0.807   3.319  0.5796 -3.1408  0.9045
 1420SOL    HW2 4393   2.744   0.881   3.234 -0.8823  1.1941  2.6670
 1421SOL     OW 4394   2.626   0.527   0.997 -0.1106  0.1285  0.9617
 1421SOL    HW1 4395   2.678   0.449   0.983 -1.1820 -0.6397  1.1523
 1421SOL    HW2 4396   2.578   0.510   1.078 -0.9881  0.6205  0.5648
 1422SOL     OW 4397   1.408   2.197   0.378  0.1316 -0.3366  0.5458
 1422SOL    HW1 4398   1.408   2.211   0.473 -0.1315  0.8723  0.3817
 1422SOL    HW2 4399   1.467   2.264   0.344  1.9758 -2.1207  0.0018
 1423SOL     OW 4400   0.498   2.018   1.586 -0.7172  0.3616  0.6413
 1423SOL    HW1 4401   0.442   2.094   1.572  0.7286  1.6610  1.5823
 1423SOL    HW2 4402   0.486   1.998   1.679 -0.5016 -0.0868  0.5710
 1424SOL     OW 4403   2.296   1.165   2.467  0.1847 -0.3816  0.3549
 1424SOL    HW1 4404   2.232   1.207   2.524  0.1704 -0.7960  0.6556
 1424SOL    HW2 4405   2.247   1.096   2.422 -0.3248  1.3056 -1.8196
 1425SOL     OW 4406   0.384   3.769   1.407  0.4974 -0.1331 -0.2918
 1425SOL    HW1 4407   0.460   3.730   1.364  0.0547  0.2068 -1.4194
 1425SOL    HW2 4408   0.313   3.707   1.389 -0.0772  0.8651 -1.5791
 1426SOL     OW 4409   1.875   3.135   3.120 -1.0244  0.1451 -0.1999
 1426SOL    HW1 4410   1.841   3.150   3.032 -0.3841 -0.2901 -0.5267
 1426SOL    HW2 4411   1.885   3.040   3.126 -4.1138 -0.2220  1.4979
 1427SOL     OW 4412   0.441   2.339   2.976  0.5888  0.3477  0.0176
 1427SOL    HW1 4413   0.392   2.261   2.952  0.8960 -0.1471  0.9503
 1427SOL    HW2 4414   0.400   2.410   2.926 -0.1884 -0.2790 -0.2448
 1428SOL     OW 4415   3.125   0.987   0.336  0.0470 -0.3339  0.4169
 1428SOL    HW1 4416   3.181   1.009   0.261 -1.1007 -1.1299 -0.7343
 1428SOL    HW2 4417   3.137   0.893   0.348  0.1086 -0.2370  1.1504
 1429SOL     OW 4418   3.429   0.895   2.246 -0.2621  0.1186  0.3444
 1429SOL    HW1 4419   3.500   0.839   2.213 -0.6495 -0.3681  0.3255
 1429SOL    HW2 4420   3.460   0.926   2.331  0.3536  0.6306 -0.0630
 1430SOL     OW 4421   1.587   1.619   3.435 -0.2666 -0.4848 -0.0608
 1430SOL    HW1 4422   1.615   1.535   3.471 -1.0573 -1.0367 -0.6820
 1430SOL    HW2 4423   1.668   1.666   3.416  0.1795 -0.8360  0.8870
 1431SOL     OW 4424   2.165   0.478   1.223  0.3047 -0.0922 -0.2514
 1431SOL    HW1 4425   2.179   0.435   1.139  1.4620  1.9380 -1.1655
 1431SOL    HW2 4426   2.169   0.572   1.203  0.5289  0.4459  2.0526
 1432SOL     OW 4427   0.615   0.983   0.973  0.0182  0.6368 -0.7188
 1432SOL    HW1 4428   0.562   1.058   1.001 -1.7393 -0.3737 -1.1852
 1432SOL    HW2 4429   0.673   0.966   1.048 -1.5223  0.7132  0.5362
 1433SOL     OW 4430   0.169   1.489   0.384  0.2373  0.0034 -0.6340
 1433SOL    HW1 4431   0.233   1.471   0.453 -0.8644 -0.4924  0.3083
 1433SOL    HW2 4432   0.100   1.539   0.428  0.4900  1.5230 -1.8906
 1434SOL     OW 4433   2.571   3.313   0.987 -0.0446  0.7543  0.1213
 1434SOL    HW1 4434   2.567   3.258   0.908 -0.6977 -0.2777  0.8451
 1434SOL    HW2 4435   2.535   3.397   0.960  1.6204  1.0941 -1.2068
 1435SOL     OW 4436   2.900   2.476   1.530 -0.0758  0.4208 -0.5748
 1435SOL    HW1 4437   2.904   2.564   1.569  0.0506  0.8179 -1.4561
 1435SOL    HW2 4438   2.844   2.487   1.453 -0.1464 -0.3054 -0.6293
 1436SOL     OW 4439   0.467   1.545   1.269 -0.1123  0.5881  0.0387
 1436SOL    HW1 4440   0.477   1.636   1.296  0.2453  0.5029  0.1845
 1436SOL    HW2 4441   0.394   1.547   1.206 -1.0198  0.7710  1.0574
 1437SOL     OW 4442   0.317   0.263   3.484 -0.1448  0.6672  0.5541
 1437SOL    HW1 4443   0.385   0.329   3.481 -0.5578  1.0724 -1.1811
 1437SOL    HW2 4444   0.245   0.304   3.532  0.0500  1.0473  0.5226
 1438SOL     OW 4445   2.816   0.323   0.387  0.2111  0.2277  0.3807
 1438SOL    HW1 4446   2.873   0.279   0.450  0.5567  2.3854  1.6712
 1438SOL    HW2 4447   2.876   0.370   0.328 -0.1748  0.1753 -0.0604
 1439SOL     OW 4448   2.811   3.287   2.934 -0.0488  0.5603 -0.3469
 1439SOL    HW1 4449   2.829   3.317   3.023  2.7295  0.6081 -0.8345
 1439SOL    HW2 4450   2.788   3.367   2.886 -0.4571  0.6996  0.0705
 1440SOL     OW 4451   0.975   2.180   3.465 -0.1189 -0.3814  0.6831
 1440SOL    HW1 4452   0.932   2.099   3.491 -0.1089  0.2038  2.7103
 1440SOL    HW2 4453   1.050   2.152   3.412 -0.5926 -1.6199  0.6298
 1441SOL     OW 4454   1.718   0.680   3.145 -0.1538  0.4059  0.4115
 1441SOL    HW1 4455   1.639   0.626   3.141  0.1403 -0.0715  0.9593
 1441SOL    HW2 4456   1.709   0.741   3.071  0.4197 -1.5897 -1.3938
 1442SOL     OW 4457   1.716   2.324   2.283  0.1769  0.1321 -0.0560
 1442SOL    HW1 4458   1.684   2.278   2.360  1.6661  0.5319  0.8346
 1442SOL    HW2 4459   1.777   2.389   2.317 -1.8234  2.8173 -1.2598
 1443SOL     OW 4460   1.943   0.989   3.213 -0.5502 -0.5178 -0.0847
 1443SOL    HW1 4461   1.926   0.986   3.307 -1.4770  0.5479 -0.1957
 1443SOL    HW2 4462   2.025   0.942   3.202 -0.5831 -0.9238  1.2181
 1444SOL     OW 4463   1.474   1.860   3.350 -0.0600  0.5419 -0.2313
 1444SOL    HW1 4464   1.528   1.795   3.394  0.9124  0.7739 -1.0454
 1444SOL    HW2 4465   1.424   1.901   3.420  0.7182  0.2242  0.5280
 1445SOL     OW 4466   2.017   0.097   0.085 -0.2434 -0.1298 -0.0629
 1445SOL    HW1 4467   1.929   0.063   0.070 -0.2269 -0.4775  0.6013
 1445SOL    HW2 4468   2.068   0.068   0.009 -0.5027 -0.6313 -0.0466
 1446SOL     OW 4469   3.591   3.183   3.048 -0.4109  0.0927  0.1485
 1446SOL    HW1 4470   3.599   3.132   3.128  0.3510 -2.6860 -1.5772
 1446SOL    HW2 4471   3.497   3.199   3.038 -0.6648 -0.9650  0.7587
 1447SOL     OW 4472   2.918   1.480   2.263 -0.5457 -0.3673 -0.3752
 1447SOL    HW1 4473   2.981   1.535   2.310  1.3380 -0.8449 -2.1740
 1447SOL    HW2 4474   2.859   1.448   2.331  0.6926  0.7107  1.3065
 1448SOL     OW 4475   1.860   0.957   0.285 -0.6575  0.6538 -0.3799
 1448SOL    HW1 4476   1.904   1.041   0.274  0.4529 -0.0020 -1.2325
 1448SOL    HW2 4477   1.795   0.954   0.214  0.0189  0.3773 -1.0039
 1449SOL     OW 4478   0.186   1.656   2.174  0.0249  0.1354  0.1803
 1449SOL    HW1 4479   0.251   1.725   2.182 -2.0514  2.0707  1.3160
 1449SOL    HW2 4480   0.119   1.692   2.116 -0.5239 -1.4408 -0.2336
 1450SOL     OW 4481   0.525   1.547   2.419 -0.2933 -0.0568  0.1419
 1450SOL    HW1 4482   0.465   1.474   2.437  0.6945 -0.9033  0.0661
 1450SOL    HW2 4483   0.602   1.506   2.380 -0.0058  1.1124 -0.5767
 1451SOL     OW 4484   0.853   2.979   3.320 -0.0692  0.1261 -0.3816
 1451SOL    HW1 4485   0.926   3.021   3.365  0.5336  2.2334 -3.0412
 1451SOL    HW2 4486   0.790   3.050   3.306 -1.8660 -1.2621  0.2864
 1452SOL     OW 4487   0.042   2.149   1.816 -0.2114  0.0909 -0.2400
 1452SOL    HW1 4488   0.102   2.219   1.842  1.0217 -1.6411  1.9991
 1452SOL    HW2 4489  -0.032   2.158   1.876 -0.3622 -0.0896 -0.3980
 1453SOL     OW 4490   0.142   0.324   2.300  0.4504 -0.1072 -0.5739
 1453SOL    HW1 4491   0.218   0.295   2.249  0.2098 -0.6733 -0.6253
 1453SOL    HW2 4492   0.087   0.371   2.238  0.2120 -0.6988 -0.8210
 1454SOL     OW 4493   0.559   2.164   3.534 -0.0000  0.4429 -0.0287
 1454SOL    HW1 4494   0.541   2.078   3.496  2.1321 -0.2488  0.3912
 1454SOL    HW2 4495   0.572   2.222   3.459  3.7668 -0.8141 -0.5438
 1455SOL     OW 4496   0.219   0.235   1.238 -0.1498  0.3610 -0.2778
 1455SOL    HW1 4497   0.302   0.282   1.231 -1.5628  3.0058 -0.8740
 1455SOL    HW2 4498   0.231   0.156   1.186  1.9921  0.6598 -0.3066
 1456SOL     OW 4499   2.555   2.644   3.716  0.0591  0.2842  0.3463
 1456SOL    HW1 4500   2.476   2.625   3.766  0.5824 -0.0256  1.0841
 1456SOL    HW2 4501   2.557   2.578   3.647 -0.6003  0.6297 -0.0107
 1457SOL     OW 4502   3.661   1.336   2.356 -0.2784 -0.5250 -0.9068
 1457SOL    HW1 4503   3.707   1.419   2.365 -1.5710  0.3420 -1.7762
 1457SOL    HW2 4504   3.708   1.275   2.412  0.2761  0.9731  0.3194
 1458SOL     OW 4505   1.573   1.527   2.684  0.1135 -0.0320  0.6645
 1458SOL    HW1 4506   1.521   1.494   2.610 -2.2037  0.1942  2.0776
 1458SOL    HW2 4507   1.511   1.580   2.735  1.4337 -0.6596  3.0979
 1459SOL     OW 4508   1.042   3.085   3.533 -0.2407 -0.1603  0.3869
 1459SOL    HW1 4509   1.030   3.091   3.628 -0.1822 -1.2201  0.4780
 1459SOL    HW2 4510   1.136   3.098   3.520 -0.0740 -1.0504  0.5947
 1460SOL     OW 4511   0.068   2.001   0.820 -0.4238 -0.0543 -0.2161
 1460SOL    HW1 4512   0.043   2.090   0.795 -2.2896 -0.4628 -0.0164
 1460SOL    HW2 4513   0.134   1.975   0.756  0.5498  1.6364  0.0301
 1461SOL     OW 4514   1.340   2.752   1.819 -0.2429  0.3026 -0.0007
 1461SOL    HW1 4515   1.385   2.820   1.870 -1.2891  0.9956  0.0275
 1461SOL    HW2 4516   1.408   2.688   1.800  0.4635  0.6752  1.1509
 1462SOL     OW 4517   2.913   2.218   0.009  0.2185 -0.5250  0.6066
 1462SOL    HW1 4518   2.892   2.268  -0.070  3.2098 -0.1386 -0.0704
 1462SOL    HW2 4519   2.907   2.283   0.080 -0.3581 -0.3321  0.3840
 1463SOL     OW 4520   1.596   0.522   1.011  0.0777 -0.0816  0.1689
 1463SOL    HW1 4521   1.504   0.549   1.007  0.2925  0.5983 -2.6100
 1463SOL    HW2 4522   1.593   0.426   1.012 -0.6384 -0.0668  1.9803
 1464SOL     OW 4523   2.981   0.699   0.049  0.2667  0.6739 -0.2518
 1464SOL    HW1 4524   2.914   0.764   0.025  1.9025  2.7985  0.5482
 1464SOL    HW2 4525   3.055   0.752   0.080  1.8681 -1.6094  0.0628
 1465SOL     OW 4526   3.219   3.397   2.153 -0.0327 -0.8182 -0.4888
 1465SOL    HW1 4527   3.173   3.420   2.234 -1.2151  0.2149 -1.4145
 1465SOL    HW2 4528   3.285   3.465   2.143  1.2299 -1.8510  0.4139
 1466SOL     OW 4529   1.562   1.555   0.038  0.0439 -0.0284 -0.1512
 1466SOL    HW1 4530   1.497   1.589  -0.024  0.3671  0.6190 -0.1461
 1466SOL    HW2 4531   1.595   1.633   0.082 -0.4219 -0.5105  1.0874
 1467SOL     OW 4532   3.268   2.861   2.183 -0.3461 -0.8770 -0.4189
 1467SOL    HW1 4533   3.310   2.801   2.245  1.6605 -0.1961 -1.0346
 1467SOL    HW2 4534   3.340   2.894   2.129 -1.5874  0.9743 -1.0425
 1468SOL     OW 4535   3.573   1.701   0.120  0.4385  0.1104  0.0886
 1468SOL    HW1 4536   3.631   1.651   0.063  1.1890  1.1021 -0.0300
 1468SOL    HW2 4537   3.490   1.652   0.118  0.9642 -0.7868 -0.4977
 1469SOL     OW 4538   0.196   1.604   3.530 -0.0137  0.1341  0.0491
 1469SOL    HW1 4539   0.281   1.584   3.490 -0.0741  2.4459 -1.3839
 1469SOL    HW2 4540   0.208   1.689   3.571 -2.1722  1.6406 -2.1460
 1470SOL     OW 4541   0.264   0.869   2.170  0.1359  0.2046  0.2600
 1470SOL    HW1 4542   0.306   0.788   2.140 -1.1340 -0.7432  0.9674
 1470SOL    HW2 4543   0.233   0.910   2.089 -2.2855 -1.7811  0.0734
 1471SOL     OW 4544   1.853   0.651   3.397 -0.2392  0.6943 -0.0649
 1471SOL    HW1 4545   1.843   0.556   3.388  1.3578  0.5066 -0.2417
 1471SOL    HW2 4546   1.836   0.685   3.309  1.7695  0.2603 -0.6838
 1472SOL     OW 4547   0.699   0.636   3.556 -0.2769 -0.2868  0.5580
 1472SOL    HW1 4548   0.785   0.678   3.551  0.5159 -1.2393  3.7093
 1472SOL    HW2 4549   0.644   0.699   3.602 -0.7737 -0.3833  0.1023
 1473SOL     OW 4550   3.711   1.735   3.439 -0.3353 -0.4879  0.8621
 1473SOL    HW1 4551   3.659   1.683   3.378 -1.7307  0.0195  1.5720
 1473SOL    HW2 4552   3.781   1.676   3.467 -0.0884 -0.9652 -0.6399
 1474SOL     OW 4553   1.373   0.105   0.550 -0.6810  0.6128  0.1235
 1474SOL    HW1 4554   1.280   0.103   0.528 -0.6866  1.4950  0.0042
 1474SOL    HW2 4555   1.378   0.160   0.629 -0.3849 -0.4127  0.8393
 1475SOL     OW 4556   1.226   1.496   1.758 -0.2905  0.0197  0.3024
 1475SOL    HW1 4557   1.167   1.565   1.789  0.1368  0.0293  1.1293
 1475SOL    HW2 4558   1.185   1.415   1.788 -0.0277  0.0079  0.6235
 1476SOL     OW 4559   1.419   2.776   0.634 -0.2413  0.4386 -0.4069
 1476SOL    HW1 4560   1.511   2.781   0.606 -0.0389  0.3324  0.2251
 1476SOL    HW2 4561   1.374   2.734   0.561  0.7151 -2.1588  0.4097
 1477SOL     OW 4562   3.375   2.937   1.005  0.0364 -0.1114  0.0244
 1477SOL    HW1 4563   3.409   2.891   0.928 -2.3636 -1.0665 -0.5565
 1477SOL    HW2 4564   3.366   3.028   0.976 -2.2301 -0.7101 -1.4505
 1478SOL     OW 4565   1.061   2.219   0.591 -0.1428 -0.2954  0.1429
 1478SOL    HW1 4566   1.006   2.238   0.667  0.1744 -0.4290  0.4088
 1478SOL    HW2 4567   1.007   2.163   0.535 -0.0140 -1.0256  0.7427
 1479SOL     OW 4568   2.628   1.897   3.130  0.9460  0.4833  0.1898
 1479SOL    HW1 4569   2.595   1.985   3.145  0.7792  0.5925 -0.7542
 1479SOL    HW2 4570   2.690   1.881   3.202 -0.1053  0.8080  1.1820
 1480SOL     OW 4571   3.046   0.595   1.150  0.1218 -0.3811 -0.0587
 1480SOL    HW1 4572   3.022   0.658   1.219  0.8775 -0.7448  0.5569
 1480SOL    HW2 4573   2.975   0.531   1.151 -0.3779  0.1538 -0.3129
 1481SOL     OW 4574   2.044   1.976   0.688 -0.0499 -0.3554  0.9256
 1481SOL    HW1 4575   1.959   1.963   0.731 -0.8976  0.0376 -0.5679
 1481SOL    HW2 4576   2.033   1.938   0.601  0.6093  1.5405 -0.0338
 1482SOL     OW 4577   3.526   1.324   1.554  0.0401  0.1203  0.2491
 1482SOL    HW1 4578   3.552   1.235   1.579 -0.8307  0.1149  1.1924
 1482SOL    HW2 4579   3.536   1.376   1.633 -0.7344  0.5716  0.0663
 1483SOL     OW 4580   3.097   3.344   0.358 -0.1962 -0.1292  0.7101
 1483SOL    HW1 4581   3.167   3.396   0.397 -1.3145 -0.1695  2.9610
 1483SOL    HW2 4582   3.097   3.262   0.407 -2.0650  0.0427  1.1045
 1484SOL     OW 4583   3.162   1.144   2.809 -0.5968 -0.5839 -0.1815
 1484SOL    HW1 4584   3.130   1.079   2.872  0.1199 -2.1337 -1.3503
 1484SOL    HW2 4585   3.091   1.208   2.802 -1.1346 -0.9858  1.3379
 1485SOL     OW 4586   0.621   0.886   0.036 -0.6865  0.6790  0.1136
 1485SOL    HW1 4587   0.603   0.947  -0.035 -1.0252  1.8022  1.1328
 1485SOL    HW2 4588   0.552   0.902   0.100 -1.4653 -1.5695 -0.0451
 1486SOL     OW 4589   3.512   2.302   0.877 -0.2201 -0.0017  0.4474
 1486SOL    HW1 4590   3.453   2.276   0.947  0.5683  0.3631  1.2670
 1486SOL    HW2 4591   3.536   2.220   0.833 -0.9296 -0.1982  0.4289
 1487SOL     OW 4592   0.506   2.930   0.563 -0.0010 -0.9394 -0.0034
 1487SOL    HW1 4593   0.587   2.953   0.608  0.5344 -1.6525 -0.5690
 1487SOL    HW2 4594   0.466   2.862   0.617  0.0874 -1.0158 -0.0336
 1488SOL     OW 4595   1.790   1.759   2.773 -0.3555 -0.3999  0.1927
 1488SOL    HW1 4596   1.725   1.802   2.717 -0.4033 -0.6958  0.0186
 1488SOL    HW2 4597   1.745   1.747   2.856 -0.5172 -0.5703  0.0838
 1489SOL     OW 4598   3.230   2.878   0.448 -0.0745  0.2139  0.0634
 1489SOL    HW1 4599   3.267   2.927   0.375 -0.9411 -0.1415 -0.6272
 1489SOL    HW2 4600   3.251   2.931   0.525  0.2682  0.9301 -0.5098
 1490SOL     OW 4601   1.376   3.046   0.669  0.2959 -0.3701 -0.3243
 1490SOL    HW1 4602   1.457   3.092   0.644  1.1028 -1.4944  0.1391
 1490SOL    HW2 4603   1.398   2.954   0.658 -1.1346 -0.6713 -0.7530
 1491SOL     OW 4604   3.758   2.359   2.085 -0.3043  0.1657 -0.4462
 1491SOL    HW1 4605   3.721   2.420   2.021 -0.6119  1.0002  0.4866
 1491SOL    HW2 4606   3.682   2.327   2.134  0.0557  0.7423  0.5084
 1492SOL     OW 4607   3.314   3.509   0.679 -0.1493  0.6818 -0.0461
 1492SOL    HW1 4608   3.332   3.556   0.761 -1.2752 -0.3069  0.8066
 1492SOL    HW2 4609   3.399   3.476   0.651  0.5359  2.5275 -0.2412
 1493SOL     OW 4610   1.554   0.050   2.507 -0.5918 -0.2584  0.3001
 1493SOL    HW1 4611   1.642   0.089   2.508 -0.8552  0.3411  0.2081
 1493SOL    HW2 4612   1.570  -0.043   2.524 -0.1624  0.2532  3.3373
 1494SOL     OW 4613   3.525   1.081   2.820 -0.2646  0.2041 -0.5343
 1494SOL    HW1 4614   3.548   1.008   2.762  1.3544  0.8379 -0.7381
 1494SOL    HW2 4615   3.496   1.150   2.761 -1.4635 -0.1339 -0.3633
 1495SOL     OW 4616   0.332   0.195   2.142  0.0377 -0.2018 -0.4483
 1495SOL    HW1 4617   0.402   0.174   2.204 -1.2496  0.3238  1.2475
 1495SOL    HW2 4618   0.370   0.176   2.056  3.3655  2.8928  0.0861
 1496SOL     OW 4619   2.835   1.833   1.813  0.0061 -0.0316  0.0611
 1496SOL    HW1 4620   2.908   1.852   1.753  0.1990  0.5323  0.4624
 1496SOL    HW2 4621   2.782   1.913   1.811  1.0774  0.7908  2.1450
 1497SOL     OW 4622   1.091   2.511   0.597 -0.0983  0.2643  0.0101
 1497SOL    HW1 4623   1.185   2.504   0.607 -0.2214 -2.8356 -0.2514
 1497SOL    HW2 4624   1.055   2.460   0.669 -1.5661  0.5140 -0.5106
 1498SOL     OW 4625   1.654   0.627   1.539 -0.7751  0.5189 -0.1921
 1498SOL    HW1 4626   1.713   0.640   1.614  0.3807  0.8540 -1.1316
 1498SOL    HW2 4627   1.608   0.711   1.531  0.0597  0.9477 -0.6466
 1499SOL     OW 4628   2.924   2.394   0.637  0.4377  0.1472 -0.2742
 1499SOL    HW1 4629   2.863   2.458   0.600  0.6975 -0.1470 -1.2507
 1499SOL    HW2 4630   2.904   2.312   0.591 -0.4725 -0.7202  1.5659
 1500SOL     OW 4631   0.320   0.644   1.493 -0.4682 -0.6627 -0.3833
 1500SOL    HW1 4632   0.278   0.559   1.504  0.0265 -1.1256 -1.9230
 1500SOL    HW2 4633   0.412   0.624   1.479 -0.1731  0.1974  0.2539
 1501SOL     OW 4634   0.581   0.645   1.315  0.3635 -0.2318 -0.3203
 1501SOL    HW1 4635   0.620   0.673   1.232  0.1798  0.2243 -0.2518
 1501SOL    HW2 4636   0.654   0.608   1.365  1.0391  1.9966  0.4301
 1502SOL     OW 4637   1.995   1.778   2.009 -0.5771  0.3609  0.1248
 1502SOL    HW1 4638   1.906   1.746   2.019 -0.8332  0.7230 -0.8805
 1502SOL    HW2 4639   2.010   1.834   2.086 -2.4855  3.1217 -1.3350
 1503SOL     OW 4640   3.710   1.225   2.094  0.1242  0.0464 -0.3870
 1503SOL    HW1 4641   3.747   1.139   2.114 -4.6922 -2.3508 -0.1813
 1503SOL    HW2 4642   3.693   1.265   2.179  0.1122  0.0971 -0.4127
 1504SOL     OW 4643   2.656   2.151   2.041 -1.0152  0.5850 -0.1021
 1504SOL    HW1 4644   2.690   2.095   2.111 -3.2185 -1.4176 -0.5097
 1504SOL    HW2 4645   2.565   2.166   2.065 -2.2052 -1.1270 -2.9805
 1505SOL     OW 4646   1.702   1.776   0.445 -0.3990  0.1858 -0.2337
 1505SOL    HW1 4647   1.643   1.778   0.521  1.3992  1.5199  1.2366
 1505SOL    HW2 4648   1.761   1.702   0.461 -1.2648 -0.7980 -1.4122
 1506SOL     OW 4649   2.992   0.055   3.423 -0.2965  0.2639 -0.5699
 1506SOL    HW1 4650   3.002   0.125   3.488  0.6091 -0.9780  0.6640
 1506SOL    HW2 4651   2.975   0.102   3.341  0.6843  1.9515  0.1410
 1507SOL     OW 4652   0.893   2.934   2.403  0.3832  0.9190  0.0284
 1507SOL    HW1 4653   0.983   2.931   2.373  0.4860  1.2202  0.3009
 1507SOL    HW2 4654   0.858   3.016   2.367 -0.3031 -0.0066 -1.5185
 1508SOL     OW 4655   0.835   1.441   0.402 -0.6640  0.1974  0.6561
 1508SOL    HW1 4656   0.846   1.347   0.388  0.4446  0.6451 -2.3667
 1508SOL    HW2 4657   0.888   1.482   0.333 -0.0764  3.1026  2.6097
 1509SOL     OW 4658   1.430   3.326   1.255 -0.3964  0.2219 -0.2577
 1509SOL    HW1 4659   1.436   3.340   1.160 -1.2186 -0.1002 -0.3659
 1509SOL    HW2 4660   1.503   3.267   1.275  0.4425  1.1431 -0.5002
 1510SOL     OW 4661   1.697   1.464   0.538 -0.4426 -0.2243  0.3098
 1510SOL    HW1 4662   1.603   1.451   0.528 -0.6507  0.5708  1.1191
 1510SOL    HW2 4663   1.719   1.420   0.619 -0.4618  1.0897  1.0618
 1511SOL     OW 4664   0.540   0.489   3.101  0.0291 -0.2156 -0.4528
 1511SOL    HW1 4665   0.590   0.469   3.021 -0.1510 -1.3000 -0.3164
 1511SOL    HW2 4666   0.465   0.429   3.098  0.3000 -0.6481  0.7815
 1512SOL     OW 4667   2.105   0.468   0.074 -0.2057  1.0389  0.4228
 1512SOL    HW1 4668   2.143   0.464  -0.014 -0.2357  1.8932  0.3615
 1512SOL    HW2 4669   2.024   0.517   0.063 -1.5835 -1.0982  0.4851
 1513SOL     OW 4670   2.807   0.467   2.499  0.0236 -0.3294 -0.4200
 1513SOL    HW1 4671   2.879   0.405   2.511 -0.9538 -1.6616 -1.1673
 1513SOL    HW2 4672   2.816   0.528   2.572  1.4912 -0.8766 -0.1108
 1514SOL     OW 4673   1.275   1.608   3.256 -0.4038 -0.0264 -0.2498
 1514SOL    HW1 4674   1.196   1.563   3.226 -0.9862  1.3616 -0.8536
 1514SOL    HW2 4675   1.346   1.562   3.211 -0.8372 -1.2877  0.2912
 1515SOL     OW 4676   2.295   0.193   1.277  0.3996  0.4991 -0.4956
 1515SOL    HW1 4677   2.299   0.103   1.245  0.6482  1.0356 -2.0449
 1515SOL    HW2 4678   2.273   0.184   1.370 -1.0316 -1.1038 -0.9308
 1516SOL     OW 4679   1.300   1.597   0.350 -0.8958  0.2384  0.1472
 1516SOL    HW1 4680   1.348   1.514   0.358  3.6957  2.6752  0.7536
 1516SOL    HW2 4681   1.297   1.614   0.256 -0.3536  0.1684  0.1173
 1517SOL     OW 4682   1.269   0.787   0.849  0.4973  0.1136  1.1720
 1517SOL    HW1 4683   1.276   0.732   0.927  2.1933 -0.7700  0.4448
 1517SOL    HW2 4684   1.303   0.732   0.778 -3.7685 -0.2864 -0.8672
 1518SOL     OW 4685   3.158   1.132   3.602 -0.2975 -0.1344 -0.0376
 1518SOL    HW1 4686   3.190   1.195   3.538  1.6039  1.0164  1.9073
 1518SOL    HW2 4687   3.158   1.049   3.556  1.4384  0.5712 -1.4249
 1519SOL     OW 4688   2.682   3.107   0.099 -0.3347  0.0817  0.0796
 1519SOL    HW1 4689   2.674   3.109   0.195  0.3353  0.8591  0.1246
 1519SOL    HW2 4690   2.680   3.014   0.077  1.9604 -0.2585  1.0694
 1520SOL     OW 4691   0.213   2.276   3.189  0.0073  0.0920  0.0704
 1520SOL    HW1 4692   0.262   2.219   3.129  1.2665  0.7324  0.4651
 1520SOL    HW2 4693   0.279   2.332   3.229 -0.9455  0.3916  1.2896
 1521SOL     OW 4694   0.427   2.863   0.025  0.3506  0.4680 -0.2596
 1521SOL    HW1 4695   0.516   2.881  -0.006  0.4270  0.9310  0.2088
 1521SOL    HW2 4696   0.440   2.825   0.112  0.0480  2.0089  0.4831
 1522SOL     OW 4697   2.231   3.048   1.305 -0.3946  0.0759 -0.2069
 1522SOL    HW1 4698   2.234   2.972   1.246  1.8932 -0.1509  0.1137
 1522SOL    HW2 4699   2.196   3.014   1.387  0.9497 -0.7728  0.0483
 1523SOL     OW 4700   3.468   2.125   0.370 -0.1287 -0.2645 -0.5829
 1523SOL    HW1 4701   3.439   2.041   0.333  0.9905 -0.5255 -0.9051
 1523SOL    HW2 4702   3.485   2.180   0.293  2.4033 -0.8696 -0.5377
 1524SOL     OW 4703   3.341   1.564   0.133 -0.5050 -0.2675 -0.0919
 1524SOL    HW1 4704   3.345   1.485   0.186 -1.3758 -1.2179 -1.3835
 1524SOL    HW2 4705   3.270   1.548   0.072 -2.0300  2.3243  0.8519
 1525SOL     OW 4706   3.212   3.344   2.779  0.0472  0.0168 -0.4369
 1525SOL    HW1 4707   3.279   3.277   2.763  0.0510  0.1053 -0.7973
 1525SOL    HW2 4708   3.177   3.364   2.692 -0.4390 -0.0201 -0.2550
 1526SOL     OW 4709   1.111   0.083   0.504 -0.3326 -0.1680 -0.4264
 1526SOL    HW1 4710   1.061   0.071   0.585  1.3488 -0.3460  0.6309
 1526SOL    HW2 4711   1.083   0.169   0.471 -1.1032 -0.1356  0.2888
 1527SOL     OW 4712   1.752   2.402   0.062 -0.2589 -0.3291  0.4193
 1527SOL    HW1 4713   1.681   2.377   0.002  0.2209 -0.7707  0.0270
 1527SOL    HW2 4714   1.755   2.330   0.125  0.9517 -1.1727 -0.5568
 1528SOL     OW 4715   0.977   1.292   3.020 -0.3530  0.6871  0.3582
 1528SOL    HW1 4716   1.011   1.203   3.014 -2.0592  0.0905 -1.0548
 1528SOL    HW2 4717   1.047   1.347   2.983 -0.2169 -0.3381 -0.9795
 1529SOL     OW 4718   1.949   1.415   2.042 -0.3725  0.0730 -0.0917
 1529SOL    HW1 4719   1.976   1.477   2.109 -0.9456  1.2504 -0.9125
 1529SOL    HW2 4720   2.030   1.371   2.016  0.2117  1.1491 -0.1480
 1530SOL     OW 4721   0.203   3.442   0.482 -0.1237  0.5779  0.0932
 1530SOL    HW1 4722   0.194   3.440   0.386  1.3377  0.0536 -0.0547
 1530SOL    HW2 4723   0.272   3.507   0.498  1.1323 -0.8444  0.6333
 1531SOL     OW 4724   1.606   3.536   2.545  0.3237  0.0363  0.0032
 1531SOL    HW1 4725   1.584   3.527   2.637 -1.6643  0.3140 -0.3902
 1531SOL    HW2 4726   1.688   3.487   2.534  0.4163 -0.2755  1.8191
 1532SOL     OW 4727   3.066   0.646   1.532 -0.2374 -0.3390 -0.7001
 1532SOL    HW1 4728   3.091   0.737   1.550  0.9497 -0.7706 -0.1310
 1532SOL    HW2 4729   3.026   0.649   1.445 -0.9824  0.8640 -0.3369
 1533SOL     OW 4730   2.194   0.435   3.556  0.1417  0.1187  0.0816
 1533SOL    HW1 4731   2.274   0.412   3.510 -0.0567 -1.0096  0.2773
 1533SOL    HW2 4732   2.132   0.366   3.532 -0.0895 -0.2790  1.7006
 1534SOL     OW 4733   2.815   1.330   1.607 -0.2899 -0.2467  0.0453
 1534SOL    HW1 4734   2.755   1.258   1.625 -1.6453  0.6235 -0.8428
 1534SOL    HW2 4735   2.780   1.404   1.656  0.2215  0.1981 -0.2529
 1535SOL     OW 4736   0.567   3.527   3.568  0.3146  0.3944  0.0127
 1535SOL    HW1 4737   0.473   3.536   3.584  0.2326  0.4797 -0.4801
 1535SOL    HW2 4738   0.603   3.493   3.649 -0.3800 -1.2182 -0.3287
 1536SOL     OW 4739   1.249   3.362   0.827  0.6450  0.2134 -0.4136
 1536SOL    HW1 4740   1.198   3.410   0.892 -0.5066  0.2214 -1.2938
 1536SOL    HW2 4741   1.330   3.412   0.819  0.7195  0.3279  0.8547
 1537SOL     OW 4742   0.652   1.305   2.095  0.0736 -0.8625 -0.0187
 1537SOL    HW1 4743   0.589   1.234   2.081 -0.7913  0.0837 -1.1749
 1537SOL    HW2 4744   0.657   1.314   2.190 -0.3967 -1.9438  0.1202
 1538SOL     OW 4745   0.529   0.968   2.674 -0.6714  0.1123 -0.2103
 1538SOL    HW1 4746   0.585   0.917   2.734 -1.5278  1.8168  2.1592
 1538SOL    HW2 4747   0.441   0.935   2.690 -0.7894 -0.2557 -1.5035
 1539SOL     OW 4748   1.955   1.822   2.550  0.4229  0.1764  0.7727
 1539SOL    HW1 4749   1.886   1.794   2.609  0.0457  0.5012  0.4940
 1539SOL    HW2 4750   2.012   1.877   2.603 -1.4599  2.8450  0.2207
 1540SOL     OW 4751   0.032   2.518   2.417 -0.1038  0.2763  1.1706
 1540SOL    HW1 4752   0.106   2.499   2.474  0.6715  0.2346  0.1801
 1540SOL    HW2 4753  -0.043   2.526   2.476  0.5122 -0.6202  2.1000
 1541SOL     OW 4754   3.113   0.037   0.283 -0.2171  0.4652 -0.2476
 1541SOL    HW1 4755   3.181  -0.029   0.293  0.7707  1.3238 -1.0381
 1541SOL    HW2 4756   3.160   0.121   0.284 -1.2712  1.0886 -0.6393
 1542SOL     OW 4757   1.962   2.853   1.914  0.1385 -0.3072  0.3639
 1542SOL    HW1 4758   2.048   2.894   1.920  0.2722 -0.5233 -0.0332
 1542SOL    HW2 4759   1.905   2.908   1.968  0.3398  0.3311 -0.0654
 1543SOL     OW 4760   3.345   1.011   1.296  0.1892 -0.3352 -0.0023
 1543SOL    HW1 4761   3.325   1.105   1.292 -0.6767 -0.5139 -0.0703
 1543SOL    HW2 4762   3.437   1.005   1.272 -0.0133  0.3977 -1.0393
 1544SOL     OW 4763   2.366   3.461   1.903  0.6180  0.2694  0.9317
 1544SOL    HW1 4764   2.441   3.513   1.877  0.0507  0.2146 -0.9349
 1544SOL    HW2 4765   2.378   3.377   1.859 -1.1546  0.7032 -0.4886
 1545SOL     OW 4766   3.212   0.033   2.032 -0.0669  0.3948  0.0851
 1545SOL    HW1 4767   3.282   0.027   1.967  0.0036 -0.5286  0.2291
 1545SOL    HW2 4768   3.174  -0.055   2.034  1.5660 -0.3909  3.0713
 1546SOL     OW 4769   1.625   0.416   1.857  0.1629  0.7815  0.1604
 1546SOL    HW1 4770   1.589   0.438   1.771 -0.0716 -0.7589 -0.1664
 1546SOL    HW2 4771   1.559   0.358   1.896 -0.2705  2.3321  1.8575
 1547SOL     OW 4772   1.850   2.535   3.296  0.3063  0.0007 -0.2736
 1547SOL    HW1 4773   1.855   2.440   3.311  0.8396 -0.1658 -1.3768
 1547SOL    HW2 4774   1.825   2.571   3.381 -0.9866 -1.2182 -0.0913
 1548SOL     OW 4775   0.508   0.876   3.436 -0.2941  0.7712 -0.4016
 1548SOL    HW1 4776   0.485   0.949   3.379  1.5727  0.9910 -0.9251
 1548SOL    HW2 4777   0.534   0.805   3.377  0.5341  0.6040  0.1464
 1549SOL     OW 4778   2.163   2.447   3.229 -0.5075  0.1560  0.1386
 1549SOL    HW1 4779   2.138   2.538   3.213 -2.3134 -0.3665 -0.2064
 1549SOL    HW2 4780   2.252   2.452   3.264 -0.2946  1.9899 -0.6041
 1550SOL     OW 4781   2.881   3.620   2.247  0.0638  0.0530  0.4490
 1550SOL    HW1 4782   2.807   3.680   2.242  1.2836  1.5105 -1.9067
 1550SOL    HW2 4783   2.849   3.539   2.206 -0.3517  0.5794 -0.2914
 1551SOL     OW 4784   2.860   0.933   3.668 -0.1823 -0.0164  0.0673
 1551SOL    HW1 4785   2.844   1.022   3.636  0.9344  0.2648  0.2340
 1551SOL    HW2 4786   2.919   0.895   3.603  1.4254  0.2686  1.2708
 1552SOL     OW 4787   1.718   0.583   2.255 -0.8771 -1.0261  1.0825
 1552SOL    HW1 4788   1.724   0.489   2.236  0.0320 -0.5042 -1.7230
 1552SOL    HW2 4789   1.810   0.612   2.258 -1.1643 -0.0374  0.6677
 1553SOL     OW 4790   1.885   3.157   1.360  0.2579 -0.0490 -0.3183
 1553SOL    HW1 4791   1.933   3.136   1.281 -0.5300 -2.9056 -0.1788
 1553SOL    HW2 4792   1.793   3.145   1.336  0.0460 -2.2009  1.2082
 1554SOL     OW 4793   3.224   2.172   0.457  0.0730 -0.0584  0.1365
 1554SOL    HW1 4794   3.314   2.174   0.426  0.2059  1.2394  0.5614
 1554SOL    HW2 4795   3.231   2.156   0.551 -0.0229  1.7746  0.4876
 1555SOL     OW 4796   1.183   3.490   3.022  0.1182  0.3635 -0.6480
 1555SOL    HW1 4797   1.193   3.532   3.107  1.7338  0.9408 -1.0870
 1555SOL    HW2 4798   1.251   3.423   3.020  0.2738  0.5373 -1.5762
 1556SOL     OW 4799   2.853   0.391   1.145 -0.3716  0.3011  0.5432
 1556SOL    HW1 4800   2.784   0.326   1.155 -1.3403  1.2923  0.5033
 1556SOL    HW2 4801   2.934   0.345   1.168 -1.2349 -0.4533  2.2472
 1557SOL     OW 4802   2.680   0.274   0.878 -0.5405  0.3170  0.2504
 1557SOL    HW1 4803   2.715   0.219   0.948  1.5222  0.9955 -0.2012
 1557SOL    HW2 4804   2.708   0.231   0.797 -0.2469  1.1875 -0.1186
 1558SOL     OW 4805   2.460   0.625   3.014 -0.4957  0.7897  0.1752
 1558SOL    HW1 4806   2.436   0.716   3.028 -0.1203  1.0172 -0.6093
 1558SOL    HW2 4807   2.383   0.587   2.971 -0.5626  0.7995  0.2870
 1559SOL     OW 4808   3.134   3.461   3.011  0.5851  0.7222  0.5061
 1559SOL    HW1 4809   3.160   3.429   2.925  0.0272  0.9587  0.2412
 1559SOL    HW2 4810   3.051   3.507   2.996  1.2135  2.0403  0.9213
 1560SOL     OW 4811   2.346   2.754   0.829  0.4336 -0.6071  0.7585
 1560SOL    HW1 4812   2.321   2.835   0.874 -1.2021 -1.0055  0.6494
 1560SOL    HW2 4813   2.434   2.771   0.795 -0.2849  1.5602 -0.2365
 1561SOL     OW 4814   1.402   1.545   0.604 -0.4585  0.0862  0.0556
 1561SOL    HW1 4815   1.361   1.459   0.610  1.0891 -0.7959 -1.5113
 1561SOL    HW2 4816   1.348   1.593   0.541 -0.2070 -0.3905 -0.5203
 1562SOL     OW 4817   0.503   3.328   3.363  0.0654 -0.1859  0.8928
 1562SOL    HW1 4818   0.566   3.257   3.375  1.1378  0.9618  2.3741
 1562SOL    HW2 4819   0.518   3.387   3.437 -0.7489  1.6359 -0.3131
 1563SOL     OW 4820   3.689   2.605   1.647 -0.5085 -0.0869 -0.0866
 1563SOL    HW1 4821   3.703   2.695   1.677 -0.6276  0.6630 -2.1238
 1563SOL    HW2 4822   3.658   2.614   1.557  1.7239 -2.1995 -1.1883
 1564SOL     OW 4823   1.722   1.144   3.157 -0.1338 -0.3017  0.5943
 1564SOL    HW1 4824   1.771   1.063   3.166 -0.5522 -0.5559  0.6299
 1564SOL    HW2 4825   1.761   1.204   3.221  1.0372 -0.0389 -0.3274
 1565SOL     OW 4826   1.792   3.396   3.227  0.1765  0.1573  0.1633
 1565SOL    HW1 4827   1.821   3.304   3.226  0.4886  0.2175 -2.2362
 1565SOL    HW2 4828   1.707   3.395   3.183 -0.2747  0.9158  0.9879
 1566SOL     OW 4829   2.364   0.464   0.214  0.0324  0.0294 -0.1150
 1566SOL    HW1 4830   2.337   0.448   0.304 -0.9690  0.4186 -0.3286
 1566SOL    HW2 4831   2.282   0.473   0.166  0.5263  1.4827 -0.7675
 1567SOL     OW 4832   2.335   3.690   2.852  0.4287  0.0209  0.4112
 1567SOL    HW1 4833   2.337   3.661   2.943 -0.8478 -1.1905  0.0992
 1567SOL    HW2 4834   2.320   3.609   2.802 -0.1445  0.8312 -0.7626
 1568SOL     OW 4835   0.401   1.945   0.171  0.1635  0.6642 -0.5948
 1568SOL    HW1 4836   0.364   1.878   0.229 -2.5542  1.5404 -1.1576
 1568SOL    HW2 4837   0.334   2.013   0.167  2.0433  2.5896 -1.5044
 1569SOL     OW 4838   1.000   2.401   0.843 -0.3366 -0.0121  0.2816
 1569SOL    HW1 4839   0.947   2.330   0.880 -0.0198  0.4062  1.5494
 1569SOL    HW2 4840   0.980   2.477   0.896  0.7585  0.4065  0.1194
 1570SOL     OW 4841   3.482   1.550   2.044 -0.2642  0.4014 -0.2782
 1570SOL    HW1 4842   3.390   1.574   2.036  0.4879  3.3690 -1.4190
 1570SOL    HW2 4843   3.517   1.611   2.110  1.0426 -0.1103 -0.4652
 1571SOL     OW 4844   2.875   1.083   3.379  0.8134  0.2995 -0.5905
 1571SOL    HW1 4845   2.780   1.085   3.372  0.7325 -0.8942 -0.0547
 1571SOL    HW2 4846   2.900   1.175   3.383 -0.3812  0.6237 -0.0211
 1572SOL     OW 4847   3.280   1.089   0.098  1.0510 -0.0815  0.1891
 1572SOL    HW1 4848   3.218   1.118   0.031 -1.2650 -1.2831  1.6731
 1572SOL    HW2 4849   3.365   1.118   0.066 -0.2704  1.8872 -1.8521
 1573SOL     OW 4850   2.686   1.689   0.478  0.1737  0.8093 -0.0995
 1573SOL    HW1 4851   2.733   1.697   0.395 -0.4452  0.3629 -0.4984
 1573SOL    HW2 4852   2.605   1.644   0.456 -0.8014  2.2331  0.4460
 1574SOL     OW 4853   1.758   0.946   1.362 -0.6178 -0.2973  0.0222
 1574SOL    HW1 4854   1.780   1.028   1.317 -1.6515  0.7481  1.3427
 1574SOL    HW2 4855   1.839   0.894   1.357  0.3653  1.1672 -0.0304
 1575SOL     OW 4856   0.032   1.268   0.278 -0.3640  0.1459 -0.0776
 1575SOL    HW1 4857   0.066   1.348   0.318 -0.1627  0.9234 -1.7424
 1575SOL    HW2 4858   0.054   1.276   0.186  0.0984 -2.0658 -0.2103
 1576SOL     OW 4859   0.151   3.355   0.229  0.1630  0.6076  0.2386
 1576SOL    HW1 4860   0.149   3.265   0.194 -1.0508  0.7221 -0.0361
 1576SOL    HW2 4861   0.095   3.404   0.169  0.3202  1.4160  0.7493
 1577SOL     OW 4862   3.751   0.041   1.686  0.0992  0.2003 -0.1440
 1577SOL    HW1 4863   3.767  -0.048   1.656  0.3135 -0.5494  2.0394
 1577SOL    HW2 4864   3.677   0.072   1.633 -0.6015 -1.6170 -0.2838
 1578SOL     OW 4865   1.839   3.192   0.772  0.1894 -0.3270 -0.6834
 1578SOL    HW1 4866   1.767   3.150   0.726  0.4271  0.1926 -1.5602
 1578SOL    HW2 4867   1.908   3.200   0.706  0.2474  1.1736 -0.4642
 1579SOL     OW 4868   2.981   2.808   3.703 -0.4055  0.1649  0.5207
 1579SOL    HW1 4869   3.071   2.818   3.672 -0.5843  0.4380  0.0887
 1579SOL    HW2 4870   2.986   2.738   3.769 -0.2232 -1.3635 -1.0432
 1580SOL     OW 4871   0.585   2.130   0.234 -0.1887 -0.5880 -0.1032
 1580SOL    HW1 4872   0.508   2.081   0.207 -0.3135 -1.6797  1.9982
 1580SOL    HW2 4873   0.648   2.118   0.163 -2.0057  0.6120 -2.0196
 1581SOL     OW 4874   0.931   3.073   1.509  0.4753 -0.5361  0.2019
 1581SOL    HW1 4875   0.951   3.019   1.433 -0.4482  2.4366 -2.3282
 1581SOL    HW2 4876   1.014   3.077   1.558  1.9203 -0.3215 -2.1347
 1582SOL     OW 4877   1.532   2.466   2.125 -0.0408  0.1816 -0.4124
 1582SOL    HW1 4878   1.455   2.490   2.176 -0.6098  0.9166 -1.5603
 1582SOL    HW2 4879   1.592   2.427   2.188 -2.0282 -2.0634  0.2410
 1583SOL     OW 4880   2.612   2.171   3.321  0.7049  0.0768  0.3049
 1583SOL    HW1 4881   2.605   2.188   3.415 -1.2499 -0.7090  0.3354
 1583SOL    HW2 4882   2.634   2.256   3.283 -0.2743  0.8132  1.3098
 1584SOL     OW 4883   3.458   2.704   2.305 -0.1473  0.6960  0.0422
 1584SOL    HW1 4884   3.530   2.730   2.247 -0.1975 -0.3350 -0.4977
 1584SOL    HW2 4885   3.485   2.619   2.340 -0.8228  0.5943  0.3295
 1585SOL     OW 4886   2.166   1.895   3.523  0.2024 -0.4446  0.1685
 1585SOL    HW1 4887   2.242   1.932   3.479  0.3437 -0.4668  0.3909
 1585SOL    HW2 4888   2.169   1.801   3.502  0.5642 -0.5441  0.6516
 1586SOL     OW 4889   3.392   2.430   1.348  0.5707  0.3777  0.0718
 1586SOL    HW1 4890   3.454   2.501   1.339 -0.1854  0.9307 -1.0766
 1586SOL    HW2 4891   3.412   2.390   1.433  2.4301  0.5632 -0.2375
 1587SOL     OW 4892   0.045   2.252   3.426  0.0411  0.2807  0.1540
 1587SOL    HW1 4893   0.093   2.226   3.347  0.4494 -0.3199  0.5877
 1587SOL    HW2 4894  -0.047   2.251   3.400  0.0356 -1.5294  0.1088
 1588SOL     OW 4895   1.858   2.583   1.214 -0.2797 -0.2002  0.1266
 1588SOL    HW1 4896   1.896   2.498   1.232  0.5964  0.4356  1.3804
 1588SOL    HW2 4897   1.861   2.630   1.297 -1.0769  0.9364 -0.4483
 1589SOL     OW 4898   0.194   1.921   2.745 -0.3999 -0.3288  0.3709
 1589SOL    HW1 4899   0.113   1.971   2.739 -0.0255  0.3428  0.8152
 1589SOL    HW2 4900   0.198   1.871   2.663 -0.2245  1.1864 -0.5722
 1590SOL     OW 4901   1.244   3.397   1.486 -0.5730  0.0574 -0.0549
 1590SOL    HW1 4902   1.204   3.459   1.425 -1.5396  1.8219  2.2008
 1590SOL    HW2 4903   1.324   3.369   1.442 -1.9971 -0.0936 -2.8002
 1591SOL     OW 4904   2.973   1.861   0.850  0.2635  0.0248  0.1337
 1591SOL    HW1 4905   2.995   1.768   0.842  0.6705  0.0789  0.6193
 1591SOL    HW2 4906   3.011   1.888   0.934  1.4498  1.0075 -0.6935
 1592SOL     OW 4907   3.579   1.824   1.831  0.1198  0.0619  0.0806
 1592SOL    HW1 4908   3.552   1.905   1.875  0.4895  0.0094  0.4038
 1592SOL    HW2 4909   3.497   1.786   1.800 -0.1846 -0.0793  1.0286
 1593SOL     OW 4910   3.102   0.971   3.057  0.3465  0.1884 -0.5106
 1593SOL    HW1 4911   3.196   0.973   3.075  0.7653 -1.5362 -2.1299
 1593SOL    HW2 4912   3.070   0.897   3.108 -0.4628  1.6267  1.1614
 1594SOL     OW 4913   2.384   3.225   1.413  0.4235 -0.4716 -0.4235
 1594SOL    HW1 4914   2.326   3.165   1.366  1.7276 -1.5771 -0.6804
 1594SOL    HW2 4915   2.325   3.279   1.465 -0.7933 -3.5209  1.6809
 1595SOL     OW 4916   2.483   0.551   1.997  0.5911  0.1292  0.1783
 1595SOL    HW1 4917   2.490   0.475   2.055  2.3658  1.0379  1.2242
 1595SOL    HW2 4918   2.544   0.615   2.033  2.0229  0.6646 -2.8474
 1596SOL     OW 4919   1.477   1.450   3.118 -0.2419  0.2911 -0.9354
 1596SOL    HW1 4920   1.564   1.478   3.145  0.4575  0.0252 -2.7746
 1596SOL    HW2 4921   1.487   1.357   3.097 -1.0266  0.2163 -1.0306
 1597SOL     OW 4922   0.928   2.707   3.731  0.0406 -0.3582 -0.1927
 1597SOL    HW1 4923   0.863   2.657   3.681 -0.2367  0.0537 -0.2509
 1597SOL    HW2 4924   1.006   2.709   3.676 -0.7987  1.5747 -1.4251
 1598SOL     OW 4925   3.469   2.055   1.425  0.1495  0.5528  0.7954
 1598SOL    HW1 4926   3.509   2.086   1.343  0.6068 -0.0607  0.7788
 1598SOL    HW2 4927   3.487   2.125   1.488  1.9053  0.0007  0.9716
 1599SOL     OW 4928   0.254   3.110   3.540  0.2857 -0.3047  0.0712
 1599SOL    HW1 4929   0.161   3.130   3.532  0.1886 -1.2864 -1.5852
 1599SOL    HW2 4930   0.261   3.017   3.521  1.5928 -0.3066  0.4408
 1600SOL     OW 4931   1.996   3.107   1.087 -0.6387 -0.2400  0.3053
 1600SOL    HW1 4932   1.955   3.162   1.021  1.9660  0.6291 -0.7082
 1600SOL    HW2 4933   2.084   3.143   1.097  0.1833 -2.4577  1.7819
 1601SOL     OW 4934   1.809   0.128   2.450 -1.1905  0.4935 -0.2825
 1601SOL    HW1 4935   1.874   0.195   2.469 -1.9300  1.0357  0.4513
 1601SOL    HW2 4936   1.786   0.141   2.358 -2.6145  2.4686  0.2796
 1602SOL     OW 4937   1.488   1.094   0.462  0.1991 -0.8132 -0.2726
 1602SOL    HW1 4938   1.464   1.002   0.471 -0.9074 -0.4763  0.5463
 1602SOL    HW2 4939   1.540   1.113   0.540 -1.1911 -0.3041  0.5808
 1603SOL     OW 4940   1.318   0.523   0.955  0.1018 -0.1379 -0.1474
 1603SOL    HW1 4941   1.231   0.541   0.991 -0.0436 -0.6367 -0.2490
 1603SOL    HW2 4942   1.302   0.484   0.869  0.4155 -0.7107  0.0514
 1604SOL     OW 4943   0.560   3.044   1.922  0.0696  0.1275 -0.5429
 1604SOL    HW1 4944   0.616   2.998   1.985 -0.0877  0.7631  0.0725
 1604SOL    HW2 4945   0.520   2.974   1.870 -0.5229 -0.4665  0.6854
 1605SOL     OW 4946   0.282   0.159   1.633  0.3393  0.9307 -0.0781
 1605SOL    HW1 4947   0.338   0.125   1.563 -0.0737 -3.3070  1.3751
 1605SOL    HW2 4948   0.193   0.148   1.600  0.1084  4.3509 -0.9779
 1606SOL     OW 4949   2.050   1.117   1.400 -0.7488 -0.7216  0.0778
 1606SOL    HW1 4950   1.996   1.193   1.379  1.9018  1.1838 -0.4022
 1606SOL    HW2 4951   2.099   1.100   1.319 -0.1358 -1.9122  0.6791
 1607SOL     OW 4952   3.244   2.765   3.131 -0.3206 -0.0812 -0.5891
 1607SOL    HW1 4953   3.174   2.826   3.106  1.4885  2.1207 -0.6635
 1607SOL    HW2 4954   3.227   2.746   3.223 -1.8971 -0.8840 -1.0251
 1608SOL     OW 4955   1.073   0.594   0.523  0.1804  0.3639 -0.0338
 1608SOL    HW1 4956   1.050   0.651   0.596  0.1564 -0.3674  0.5416
 1608SOL    HW2 4957   1.026   0.513   0.540  1.3809 -0.3527 -0.0425
 1609SOL     OW 4958   3.718   3.522   0.074 -0.7210 -0.4921 -0.0162
 1609SOL    HW1 4959   3.667   3.530  -0.007 -1.1739  0.3317  0.3292
 1609SOL    HW2 4960   3.731   3.613   0.102 -1.2164 -0.7838  1.2234
 1610SOL     OW 4961   3.062   3.547   1.561 -0.0646  0.1880 -0.1888
 1610SOL    HW1 4962   2.967   3.543   1.549 -0.2934  1.4042  0.8896
 1610SOL    HW2 4963   3.086   3.635   1.531  0.2112  1.0474  2.3005
 1611SOL     OW 4964   3.505   0.673  -0.003  0.2611  0.3661 -0.2756
 1611SOL    HW1 4965   3.540   0.702   0.082 -0.6600  0.6778  0.0058
 1611SOL    HW2 4966   3.581   0.673  -0.061  0.9962 -0.2666  0.6517
 1612SOL     OW 4967   0.876   1.683   3.015  0.5164 -0.1952 -0.2031
 1612SOL    HW1 4968   0.787   1.650   3.028  0.5209 -0.1430 -0.0282
 1612SOL    HW2 4969   0.929   1.634   3.078  0.5576 -0.0032 -0.0856
 1613SOL     OW 4970   3.521   1.425   1.806  0.2459  0.3563 -0.3922
 1613SOL    HW1 4971   3.543   1.483   1.879  1.1331 -0.3588 -0.0669
 1613SOL    HW2 4972   3.498   1.342   1.848 -2.1146  0.7258 -0.7792
 1614SOL     OW 4973   3.470   2.870   1.405  0.1641 -0.1592 -0.2028
 1614SOL    HW1 4974   3.406   2.821   1.456 -0.3757 -0.1604 -0.8751
 1614SOL    HW2 4975   3.427   2.954   1.386  0.7254  0.2173  0.1461
 1615SOL     OW 4976   3.715   3.283   3.593  1.1237 -0.4697  0.5413
 1615SOL    HW1 4977   3.717   3.378   3.591  0.0205 -0.4400  0.4720
 1615SOL    HW2 4978   3.731   3.260   3.685  0.7246 -0.2009  0.6756
 1616SOL     OW 4979   1.542   0.409   1.425 -0.1349  0.3164  0.4292
 1616SOL    HW1 4980   1.592   0.490   1.438  0.6882 -0.2870  1.0983
 1616SOL    HW2 4981   1.603   0.339   1.450 -0.6000 -0.5543 -0.8134
 1617SOL     OW 4982   0.801   2.220   1.039 -0.2678  0.3798 -0.0164
 1617SOL    HW1 4983   0.767   2.292   1.092  1.4096 -0.2214  2.0233
 1617SOL    HW2 4984   0.843   2.162   1.102 -0.2917 -1.6581 -1.7786
 1618SOL     OW 4985   1.203   3.222   0.600  0.6689  0.4743 -0.7583
 1618SOL    HW1 4986   1.269   3.157   0.624  1.3055  1.2196 -0.4559
 1618SOL    HW2 4987   1.211   3.290   0.666 -0.7923  0.3314 -0.3932
 1619SOL     OW 4988   0.421   0.019   3.614  0.0775 -0.1927  0.9325
 1619SOL    HW1 4989   0.363   0.001   3.540  0.3420  0.1820  0.6259
 1619SOL    HW2 4990   0.451   0.109   3.599  0.8669 -0.4358  0.9986
 1620SOL     OW 4991   1.883   0.424   0.723  0.2253  0.1567 -0.0642
 1620SOL    HW1 4992   1.813   0.361   0.708  1.1902 -0.8278 -0.5337
 1620SOL    HW2 4993   1.929   0.392   0.801  0.2799  0.6872  0.1268
 1621SOL     OW 4994   0.741   2.739   0.477 -0.5582 -0.3460 -0.0141
 1621SOL    HW1 4995   0.780   2.652   0.466  0.2546 -0.4585  2.9771
 1621SOL    HW2 4996   0.652   2.722   0.510 -0.4494 -0.0577  0.4397
 1622SOL     OW 4997   0.038   3.520   3.253 -0.1000 -0.1907 -0.0693
 1622SOL    HW1 4998  -0.016   3.444   3.277  2.2502 -1.8012  0.4756
 1622SOL    HW2 4999   0.053   3.565   3.336 -0.5129  0.2107 -0.2082
 1623SOL     OW 5000   2.169   1.748   0.355  0.4486  0.2256 -0.1961
 1623SOL    HW1 5001   2.143   1.798   0.277 -1.2653  0.7474  0.6493
 1623SOL    HW2 5002   2.215   1.812   0.409 -1.1907  0.7699  0.6065
 1624SOL     OW 5003   1.192   0.445   2.058  0.2053  0.4219  0.2067
 1624SOL    HW1 5004   1.206   0.524   2.110 -0.3687  1.2099 -0.7923
 1624SOL    HW2 5005   1.223   0.468   1.970 -1.4878  0.1255 -0.5096
 1625SOL     OW 5006   0.726   0.379   1.044  0.3102  0.0190 -0.2721
 1625SOL    HW1 5007   0.709   0.463   1.001  0.2465  1.7743  2.8420
 1625SOL    HW2 5008   0.677   0.315   0.993 -0.1208  1.9374 -2.4314
 1626SOL     OW 5009   1.470   0.607   3.098 -0.2740 -0.0364  0.4293
 1626SOL    HW1 5010   1.379   0.595   3.071 -0.7260  3.6178 -0.2933
 1626SOL    HW2 5011   1.520   0.607   3.016  0.5044 -2.3307  0.8413
 1627SOL     OW 5012   2.832   1.434   1.040 -0.1535 -0.2713  0.1253
 1627SOL    HW1 5013   2.759   1.390   0.998 -1.9355  1.4446  1.2726
 1627SOL    HW2 5014   2.802   1.454   1.129  1.2333  1.5188  0.2811
 1628SOL     OW 5015   2.440   2.891   3.372 -0.5538 -0.0567 -0.2451
 1628SOL    HW1 5016   2.517   2.920   3.323 -1.2272 -0.4350 -1.5684
 1628SOL    HW2 5017   2.446   2.938   3.455  1.4610 -0.6062 -0.0395
 1629SOL     OW 5018   0.096   2.803   1.416  0.4502 -0.1799 -0.2789
 1629SOL    HW1 5019   0.030   2.864   1.449  0.7200 -0.2180  0.3290
 1629SOL    HW2 5020   0.087   2.809   1.320 -1.0153 -0.8143 -0.2129
 1630SOL     OW 5021   1.414   1.066   2.578  0.4239  0.1281  0.1275
 1630SOL    HW1 5022   1.470   1.099   2.649 -1.2209 -0.2741  1.6980
 1630SOL    HW2 5023   1.384   0.981   2.610 -1.2152  0.4116 -0.5805
 1631SOL     OW 5024   0.401   1.211   1.273  0.3423  0.3122 -1.3461
 1631SOL    HW1 5025   0.471   1.234   1.334  0.4033  0.8319 -1.6045
 1631SOL    HW2 5026   0.323   1.204   1.328  0.6891 -0.8179 -0.9705
 1632SOL     OW 5027   2.720   1.934   2.215  0.0467 -0.0443  0.0979
 1632SOL    HW1 5028   2.737   1.934   2.309  1.7168  4.0105 -0.0083
 1632SOL    HW2 5029   2.794   1.885   2.177 -0.9843 -2.2867  0.7925
 1633SOL     OW 5030   3.041   1.240   0.973 -0.3374  0.3407 -0.1176
 1633SOL    HW1 5031   2.952   1.256   1.003 -0.5253  0.5865 -0.7910
 1633SOL    HW2 5032   3.046   1.145   0.962  0.0434  0.1204  1.6054
 1634SOL     OW 5033   3.545   0.473   2.633  0.7748  0.9186 -0.1749
 1634SOL    HW1 5034   3.507   0.438   2.553  2.1463 -0.6842 -0.1736
 1634SOL    HW2 5035   3.505   0.420   2.703 -1.8421  3.5001  0.4833
 1635SOL     OW 5036   3.498   0.106   1.575 -0.3793  0.2204  0.2340
 1635SOL    HW1 5037   3.417   0.118   1.526 -0.0292  1.8714  0.0279
 1635SOL    HW2 5038   3.504   0.184   1.631 -0.0891 -0.9635  1.9521
 1636SOL     OW 5039   3.266   2.728   3.671 -0.5491 -0.3863  0.2285
 1636SOL    HW1 5040   3.350   2.723   3.625 -0.1111 -0.3617  0.9922
 1636SOL    HW2 5041   3.250   2.639   3.702  0.6046  0.0894  2.4439
 1637SOL     OW 5042   0.811   3.054   0.467 -0.5344  0.2096  0.1658
 1637SOL    HW1 5043   0.741   3.020   0.523 -1.5240  0.3565 -0.9234
 1637SOL    HW2 5044   0.891   3.013   0.500 -1.6823 -3.8168 -1.4296
 1638SOL     OW 5045   1.599   3.295   1.533 -0.1515  0.3680  0.6144
 1638SOL    HW1 5046   1.612   3.350   1.610  0.5008  0.7269  0.2517
 1638SOL    HW2 5047   1.534   3.230   1.562 -0.5591  1.0094  1.1966
 1639SOL     OW 5048   3.509   1.180   1.929 -0.5488 -0.0507 -0.0214
 1639SOL    HW1 5049   3.582   1.195   1.990  0.5001 -0.8720 -1.0238
 1639SOL    HW2 5050   3.525   1.092   1.895 -2.2007 -0.3714 -0.0351
 1640SOL     OW 5051   0.883   1.190   1.046  0.0390 -0.5817 -0.5495
 1640SOL    HW1 5052   0.877   1.141   0.965 -0.3901 -1.4045 -0.0387
 1640SOL    HW2 5053   0.796   1.227   1.059 -0.3987 -1.8370  0.3532
 1641SOL     OW 5054   0.176   3.475   0.846  0.0358 -0.6586  0.0496
 1641SOL    HW1 5055   0.243   3.540   0.825 -0.6517  0.6509  1.7178
 1641SOL    HW2 5056   0.125   3.514   0.916  0.0555 -3.3062  1.6795
 1642SOL     OW 5057   0.264   3.262   0.700  0.2611 -0.1284 -0.1987
 1642SOL    HW1 5058   0.238   3.334   0.757  1.2902  0.3734 -0.3239
 1642SOL    HW2 5059   0.265   3.301   0.612 -1.3002 -0.8892 -0.5829
 1643SOL     OW 5060   2.079   2.449   2.793  0.0487  0.1280  0.3868
 1643SOL    HW1 5061   2.139   2.507   2.840  1.8081  0.1343 -1.7352
 1643SOL    HW2 5062   2.076   2.485   2.704  0.5442 -2.4998 -0.7789
 1644SOL     OW 5063   3.183   0.214   3.731 -0.3292 -0.6865  0.1300
 1644SOL    HW1 5064   3.192   0.309   3.737  0.8314 -0.6710 -1.2987
 1644SOL    HW2 5065   3.099   0.200   3.687 -0.0690 -0.2839 -0.5048
 1645SOL     OW 5066   2.166   0.425   1.892  0.5280 -0.1876  0.1678
 1645SOL    HW1 5067   2.073   0.404   1.891  0.9834 -2.7328  1.9474
 1645SOL    HW2 5068   2.171   0.511   1.933 -1.0318  0.0145 -0.0108
 1646SOL     OW 5069   2.205   2.244   2.530 -0.6314 -0.4203  0.2893
 1646SOL    HW1 5070   2.272   2.212   2.590  0.0922  1.3704  0.5169
 1646SOL    HW2 5071   2.241   2.327   2.497 -2.4335  0.2373 -0.1157
 1647SOL     OW 5072   1.564   1.014   3.478  0.0061  0.2392  0.0148
 1647SOL    HW1 5073   1.554   1.083   3.543  1.7194 -3.0979  4.2895
 1647SOL    HW2 5074   1.482   0.964   3.482 -0.4951  0.8296 -1.6901
 1648SOL     OW 5075   3.470   1.558   1.294 -0.2876 -0.2101 -0.5967
 1648SOL    HW1 5076   3.456   1.618   1.367  1.1466 -0.8241  0.2065
 1648SOL    HW2 5077   3.561   1.530   1.301 -1.0533 -3.0567 -0.5014
 1649SOL     OW 5078   3.132   0.706   3.195 -0.8523 -0.0271  0.7724
 1649SOL    HW1 5079   3.120   0.633   3.256 -1.1542 -0.6207  0.0158
 1649SOL    HW2 5080   3.225   0.704   3.173 -1.0933 -1.0130 -0.2464
 1650SOL     OW 5081   2.476   0.701   0.404  0.1738  0.0256 -0.1782
 1650SOL    HW1 5082   2.551   0.733   0.454  1.3479 -3.5590  0.6709
 1650SOL    HW2 5083   2.444   0.626   0.454 -2.7887  0.2324 -1.5617
 1651SOL     OW 5084   1.047   1.105   2.767 -0.5834 -0.5940 -0.1968
 1651SOL    HW1 5085   1.018   1.088   2.857  0.9756  0.3803  0.5163
 1651SOL    HW2 5086   0.965   1.117   2.718 -1.4486  0.3307  1.3840
 1652SOL     OW 5087   0.651   3.718   0.724  0.4981 -0.5007  0.1432
 1652SOL    HW1 5088   0.629   3.654   0.657 -3.1286  0.4430  0.2440
 1652SOL    HW2 5089   0.609   3.686   0.804 -1.9408  2.1052  0.0724
 1653SOL     OW 5090   2.455   0.814   3.408 -0.3963  0.0590 -0.8099
 1653SOL    HW1 5091   2.398   0.875   3.455  0.6316 -1.0723  2.1858
 1653SOL    HW2 5092   2.418   0.728   3.426  1.0099 -0.5328 -0.6074
 1654SOL     OW 5093   3.513   2.034   0.798  0.2523 -1.0062 -0.0352
 1654SOL    HW1 5094   3.592   2.001   0.757  0.5366  0.5322 -0.7930
 1654SOL    HW2 5095   3.514   1.996   0.886  0.9482 -2.3232 -0.5868
 1655SOL     OW 5096   2.282   2.483   2.423  0.1819  0.1233 -0.1044
 1655SOL    HW1 5097   2.336   2.498   2.501 -1.0950 -0.8087  1.0049
 1655SOL    HW2 5098   2.270   2.570   2.386 -2.3141  1.2605  2.9251
 1656SOL     OW 5099   3.505   0.392   0.236 -0.1045 -0.4440 -0.1062
 1656SOL    HW1 5100   3.587   0.423   0.275 -0.0781 -0.0782 -0.4554
 1656SOL    HW2 5101   3.493   0.447   0.159 -0.3568 -0.9156 -0.4037
 1657SOL     OW 5102   2.805   1.368   1.332 -0.2000 -0.1074 -0.0509
 1657SOL    HW1 5103   2.712   1.347   1.329 -1.4118  4.3107 -1.2797
 1657SOL    HW2 5104   2.824   1.377   1.425 -1.7262  1.2375  0.1817
 1658SOL     OW 5105   0.313   0.378   0.808  0.7628 -0.4906 -0.6712
 1658SOL    HW1 5106   0.367   0.388   0.730  0.3424 -0.9463 -1.0269
 1658SOL    HW2 5107   0.296   0.468   0.837  0.1770 -0.2847 -1.6236
 1659SOL     OW 5108   3.000   0.166   0.518 -0.2725 -0.6952  0.4812
 1659SOL    HW1 5109   3.029   0.102   0.453 -0.7104 -0.3615 -0.0641
 1659SOL    HW2 5110   3.079   0.192   0.564  0.1533 -0.5098 -0.3301
 1660SOL     OW 5111   0.341   1.298   2.753  0.3276 -0.7950  0.2384
 1660SOL    HW1 5112   0.319   1.367   2.815  0.0625  0.1535 -0.8903
 1660SOL    HW2 5113   0.382   1.230   2.807  0.8470  0.3460  1.3348
 1661SOL     OW 5114   1.333   0.651   1.459 -0.6654  0.2781 -0.3031
 1661SOL    HW1 5115   1.317   0.697   1.541 -0.5701  3.1840 -1.7934
 1661SOL    HW2 5116   1.424   0.671   1.438 -0.4458 -1.0945 -0.7772
 1662SOL     OW 5117   1.991   3.419   1.063  0.0049 -0.3006 -0.3369
 1662SOL    HW1 5118   1.914   3.364   1.076 -0.8116  0.6775 -0.9793
 1662SOL    HW2 5119   2.003   3.464   1.147  0.7055 -1.4403  0.2104
 1663SOL     OW 5120   1.602   2.915   1.849  0.4335 -0.2231  0.2388
 1663SOL    HW1 5121   1.653   2.922   1.768 -0.6376  3.0205 -0.3054
 1663SOL    HW2 5122   1.663   2.941   1.918  0.7272 -0.7523  0.1803
 1664SOL     OW 5123   2.905   2.114   3.211 -0.5256  0.4847  0.0903
 1664SOL    HW1 5124   2.843   2.180   3.181 -0.9219 -0.1001 -0.3932
 1664SOL    HW2 5125   2.860   2.072   3.285  0.8906  2.6842  2.3879
 1665SOL     OW 5126   1.077   2.037   1.729  0.5483  0.3625 -0.0630
 1665SOL    HW1 5127   1.153   2.013   1.781  1.1768  2.4775  0.0928
 1665SOL    HW2 5128   1.107   2.110   1.675  0.0703 -1.9164 -3.7837
 1666SOL     OW 5129   2.880   3.320   0.852  0.3830  0.1055 -0.0843
 1666SOL    HW1 5130   2.860   3.398   0.903 -2.2750 -0.6343  0.1460
 1666SOL    HW2 5131   2.840   3.337   0.766  2.2416  0.1060 -1.0114
 1667SOL     OW 5132   1.376   3.727   0.288  0.5263 -0.4248 -0.5986
 1667SOL    HW1 5133   1.335   3.640   0.289  0.6300 -0.4896 -1.5946
 1667SOL    HW2 5134   1.383   3.751   0.381  0.1468 -1.3115 -0.3325
 1668SOL     OW 5135   3.380   2.186   2.154  0.5940  0.0051 -0.3477
 1668SOL    HW1 5136   3.336   2.102   2.145 -0.2609  0.5258 -1.3274
 1668SOL    HW2 5137   3.470   2.164   2.176  0.3566 -1.1644 -0.4976
 1669SOL     OW 5138   0.412   3.200   2.092 -0.4362  0.7795  0.4522
 1669SOL    HW1 5139   0.378   3.156   2.170 -0.6057  0.7213  0.3465
 1669SOL    HW2 5140   0.453   3.130   2.041 -0.9071  0.6962  0.1740
 1670SOL     OW 5141   3.717   1.410   1.357  0.2734 -0.3658  0.2871
 1670SOL    HW1 5142   3.650   1.382   1.420  1.2148 -1.3002  0.9102
 1670SOL    HW2 5143   3.798   1.412   1.408  0.8008  0.3076 -0.5604
 1671SOL     OW 5144   1.478   3.579   0.089  0.0213 -0.0383 -0.3507
 1671SOL    HW1 5145   1.459   3.658   0.140 -2.9461  0.5329 -2.1062
 1671SOL    HW2 5146   1.472   3.607  -0.002 -0.8870 -2.1777 -1.0128
 1672SOL     OW 5147   0.965   2.492   2.671 -0.0447 -0.9320 -0.2039
 1672SOL    HW1 5148   1.006   2.441   2.601 -0.0495 -2.2076  0.7105
 1672SOL    HW2 5149   0.911   2.556   2.624 -0.9522 -2.5021 -1.3792
 1673SOL     OW 5150   1.936   0.747   1.344  0.2395 -1.1934  0.5134
 1673SOL    HW1 5151   1.893   0.684   1.286 -0.8820  0.4166 -0.4844
 1673SOL    HW2 5152   2.003   0.787   1.289 -0.7120  0.2199  0.3476
 1674SOL     OW 5153   2.050   3.196   1.894  0.2124 -0.3038 -0.5723
 1674SOL    HW1 5154   1.973   3.223   1.843 -0.3005  1.5003  1.0424
 1674SOL    HW2 5155   2.050   3.254   1.970  3.0280 -0.4551 -0.3549
 1675SOL     OW 5156   2.979   0.303   2.916 -0.4916 -0.5027 -0.5552
 1675SOL    HW1 5157   2.970   0.387   2.961  1.4255 -1.2649  1.4490
 1675SOL    HW2 5158   3.038   0.322   2.843 -0.0357 -0.0851 -0.0917
 1676SOL     OW 5159   2.400   1.312   2.700  0.2342 -0.1993 -0.3855
 1676SOL    HW1 5160   2.462   1.241   2.686  2.0328  1.0864  0.6580
 1676SOL    HW2 5161   2.443   1.389   2.663 -1.1273  0.5841 -0.3998
 1677SOL     OW 5162   1.624   3.206   1.852 -0.1580 -0.8044 -0.2292
 1677SOL    HW1 5163   1.716   3.181   1.860 -0.3801 -1.2734  1.2950
 1677SOL    HW2 5164   1.589   3.197   1.941 -0.9007  2.4613 -0.0488
 1678SOL     OW 5165   0.992   3.432   2.494  0.8522  0.1852  0.1880
 1678SOL    HW1 5166   0.933   3.398   2.561  0.0091 -3.0620 -1.9904
 1678SOL    HW2 5167   1.080   3.418   2.529  0.4509 -2.2852  0.3538
 1679SOL     OW 5168   0.787   2.773   0.912 -0.3833  0.1313 -0.4854
 1679SOL    HW1 5169   0.863   2.764   0.855  0.2437 -0.5422  0.4190
 1679SOL    HW2 5170   0.815   2.835   0.979 -0.3043 -0.7720  0.3413
 1680SOL     OW 5171   0.417   1.099   2.933  0.3260 -0.1922  0.1411
 1680SOL    HW1 5172   0.417   1.019   2.880 -0.4543 -0.0892 -0.0116
 1680SOL    HW2 5173   0.510   1.118   2.946  0.5529  0.0262 -1.5535
 1681SOL     OW 5174   0.430   3.407   1.592  0.8529  0.2845  0.0686
 1681SOL    HW1 5175   0.387   3.350   1.657  1.6057  0.2419  0.5471
 1681SOL    HW2 5176   0.483   3.467   1.645 -0.5211  1.9857 -0.3771
 1682SOL     OW 5177   3.253   0.878   0.585  0.1610  0.8040 -0.2146
 1682SOL    HW1 5178   3.220   0.937   0.518 -0.5125 -0.9585 -1.5098
 1682SOL    HW2 5179   3.196   0.802   0.580  1.7889 -0.5330  0.4916
 1683SOL     OW 5180   3.257   0.797   0.070  0.3121  0.2426  0.1403
 1683SOL    HW1 5181   3.351   0.788   0.053  0.5643 -0.1521  1.6366
 1683SOL    HW2 5182   3.244   0.890   0.085  0.6209  0.1820  0.7896
 1684SOL     OW 5183   1.176   3.274   0.232 -0.1828  0.4318 -0.1470
 1684SOL    HW1 5184   1.081   3.272   0.233 -0.2182 -0.5238 -1.9636
 1684SOL    HW2 5185   1.203   3.187   0.262  0.0515  0.0913 -1.2842
 1685SOL     OW 5186   0.525   3.352   0.605 -0.0630  0.3044 -0.0026
 1685SOL    HW1 5187   0.504   3.433   0.652  0.2017  0.7010 -0.5657
 1685SOL    HW2 5188   0.543   3.289   0.675 -0.7862  0.5833  0.4543
 1686SOL     OW 5189   2.771   2.026   1.482  0.0924  0.1581  0.8365
 1686SOL    HW1 5190   2.723   2.044   1.563  1.6050  0.3630  1.7464
 1686SOL    HW2 5191   2.841   1.966   1.509  2.2224  2.2453  0.3061
 1687SOL     OW 5192   1.212   0.304   1.102  0.6934  1.0124 -0.8064
 1687SOL    HW1 5193   1.204   0.298   1.197  0.4751 -0.2494 -0.8897
 1687SOL    HW2 5194   1.260   0.386   1.087  2.0680  0.4829  0.4549
 1688SOL     OW 5195   0.059   2.834   3.250 -0.3938  0.6416 -0.4577
 1688SOL    HW1 5196   0.073   2.746   3.286  0.1510  0.6864 -0.5437
 1688SOL    HW2 5197  -0.014   2.870   3.300 -0.5199  0.1968 -0.3174
 1689SOL     OW 5198   1.962   0.519   2.766 -0.7405  0.1600  0.1405
 1689SOL    HW1 5199   2.006   0.564   2.693  0.6930  0.7012  1.2801
 1689SOL    HW2 5200   1.941   0.590   2.827  2.5924 -0.6561  2.5153
 1690SOL     OW 5201   1.034   0.824   1.906  0.4567  0.0614 -1.0529
 1690SOL    HW1 5202   1.107   0.763   1.914 -0.3890 -1.4256 -3.5696
 1690SOL    HW2 5203   0.961   0.781   1.951  0.6269  0.7206 -0.1064
 1691SOL     OW 5204   1.599   0.816   0.284 -0.3484 -0.0932  0.2277
 1691SOL    HW1 5205   1.598   0.869   0.204 -0.6644 -0.5938 -0.1058
 1691SOL    HW2 5206   1.682   0.768   0.279 -1.3251 -1.7897 -0.9335
 1692SOL     OW 5207   3.288   3.049   0.647 -0.2844  0.0434  0.2028
 1692SOL    HW1 5208   3.360   3.071   0.707 -0.2782  0.7987 -0.0642
 1692SOL    HW2 5209   3.219   3.111   0.670 -0.8748 -0.7110  0.4846
 1693SOL     OW 5210   1.920   0.740   2.415  0.1790 -0.7636  0.2114
 1693SOL    HW1 5211   1.982   0.775   2.350 -0.5864 -0.2054 -0.2288
 1693SOL    HW2 5212   1.976   0.701   2.482  1.0466  0.4161  0.2180
 1694SOL     OW 5213   0.184   1.200   3.464  0.0908 -0.9550  0.0962
 1694SOL    HW1 5214   0.129   1.251   3.404  0.3587 -1.0939 -0.2689
 1694SOL    HW2 5215   0.194   1.115   3.421  0.5395 -0.9523  0.1920
 1695SOL     OW 5216   0.982   2.261   1.258 -0.2600  0.4570 -0.0358
 1695SOL    HW1 5217   0.915   2.286   1.322  2.4764  0.0820  3.2538
 1695SOL    HW2 5218   1.030   2.341   1.241  0.1091  0.1882 -0.2660
 1696SOL     OW 5219   2.185   1.186   1.628 -0.3266 -0.5718 -0.2619
 1696SOL    HW1 5220   2.223   1.124   1.691  1.0442 -2.1263 -2.4890
 1696SOL    HW2 5221   2.176   1.135   1.547 -0.0973  1.8560 -1.9111
 1697SOL     OW 5222   3.612   2.605   1.361 -0.3224 -0.8300  0.1982
 1697SOL    HW1 5223   3.666   2.567   1.291 -0.0272  0.6950 -0.4381
 1697SOL    HW2 5224   3.599   2.696   1.335  1.7703  0.5290  3.2240
 1698SOL     OW 5225   1.657   2.626   2.581  0.3826  0.4285  0.5940
 1698SOL    HW1 5226   1.644   2.553   2.642  2.3685 -0.5632 -0.0494
 1698SOL    HW2 5227   1.714   2.686   2.628  0.0354  0.8001  0.5418
 1699SOL     OW 5228   1.009   2.129   2.749 -0.6010 -0.6343  0.2449
 1699SOL    HW1 5229   0.984   2.036   2.748  0.7159 -1.1413 -3.5795
 1699SOL    HW2 5230   0.926   2.176   2.758 -1.3750 -2.1430  1.5080
 1700SOL     OW 5231   3.494   1.958   0.099 -0.8818  0.3955  0.2437
 1700SOL    HW1 5232   3.544   1.877   0.086 -3.4204 -1.1816 -0.3068
 1700SOL    HW2 5233   3.426   1.934   0.162 -0.8233  2.5399  1.1904
 1701SOL     OW 5234   1.239   3.428   3.372 -0.1226  0.9114 -0.1946
 1701SOL    HW1 5235   1.256   3.439   3.465  2.0518 -0.7215 -0.3203
 1701SOL    HW2 5236   1.144   3.438   3.363 -0.0839  4.1369  1.6659
 1702SOL     OW 5237   3.650   0.477   3.510 -0.5894  0.4932 -0.9289
 1702SOL    HW1 5238   3.648   0.402   3.450 -0.2294 -0.4735  0.2232
 1702SOL    HW2 5239   3.733   0.467   3.558 -0.7042  1.4293 -0.5119
 1703SOL     OW 5240   2.746   2.059   2.893  0.3354 -0.4661 -0.1402
 1703SOL    HW1 5241   2.797   1.978   2.894  0.2750 -0.5245 -0.9293
 1703SOL    HW2 5242   2.715   2.066   2.802 -0.3143  0.0314  0.1146
 1704SOL     OW 5243   3.668   0.928   3.219 -0.5583  0.4555  0.4700
 1704SOL    HW1 5244   3.615   0.885   3.152  1.4610 -0.6767 -0.5076
 1704SOL    HW2 5245   3.673   0.864   3.290 -0.7270  0.6639  0.6685
 1705SOL     OW 5246   3.425   2.646   1.963  0.4142  0.3026 -0.3387
 1705SOL    HW1 5247   3.352   2.611   2.014  0.6471  2.7878  1.8795
 1705SOL    HW2 5248   3.481   2.689   2.027  2.4696  0.7908 -2.3281
 1706SOL     OW 5249   3.569   1.727   2.250 -0.0156  0.3473  0.1979
 1706SOL    HW1 5250   3.533   1.809   2.282 -0.9194 -0.0787  0.2970
 1706SOL    HW2 5251   3.649   1.714   2.302 -2.0964 -1.0120  3.4345
 1707SOL     OW 5252   3.295   2.360   2.967 -0.3668  0.1273  0.3227
 1707SOL    HW1 5253   3.320   2.359   3.059 -0.2272 -0.1431  0.2808
 1707SOL    HW2 5254   3.269   2.270   2.947 -0.2126  0.1419  0.0476
 1708SOL     OW 5255   3.446   3.512   1.478 -0.1647 -0.1523  0.1911
 1708SOL    HW1 5256   3.458   3.445   1.546  1.9987 -0.6677 -0.6267
 1708SOL    HW2 5257   3.461   3.595   1.523  1.2584 -0.4908  0.4052
 1709SOL     OW 5258   2.085   0.981   2.518  0.6191 -0.5133  0.2479
 1709SOL    HW1 5259   2.165   0.950   2.562  0.7643 -0.7138 -0.1498
 1709SOL    HW2 5260   2.083   0.932   2.436  0.4996  0.0654 -0.0990
 1710SOL     OW 5261   0.479   3.067   1.174  0.5252 -0.3564  0.3858
 1710SOL    HW1 5262   0.514   3.022   1.098  0.8004 -1.0500  0.9083
 1710SOL    HW2 5263   0.394   3.101   1.145 -0.7466 -3.1119  0.5511
 1711SOL     OW 5264   0.644   0.627   0.940 -0.1641 -0.2382  0.1455
 1711SOL    HW1 5265   0.693   0.626   0.858 -1.7251 -1.9835 -0.8421
 1711SOL    HW2 5266   0.632   0.720   0.960  1.5066  0.2234 -0.7850
 1712SOL     OW 5267   0.740   0.270   2.033 -0.1414  0.1613 -0.4639
 1712SOL    HW1 5268   0.777   0.195   2.079 -1.7014 -0.0710  0.4843
 1712SOL    HW2 5269   0.697   0.233   1.956 -1.1266  0.0155  0.1350
 1713SOL     OW 5270   0.914   2.377   0.199 -0.5131  0.4065  0.0750
 1713SOL    HW1 5271   1.005   2.355   0.220 -0.5746 -0.8787 -0.9002
 1713SOL    HW2 5272   0.917   2.403   0.107 -0.9478  1.6340  0.3858
 1714SOL     OW 5273   3.451   0.826   1.038  0.5448  0.2055 -0.4090
 1714SOL    HW1 5274   3.421   0.808   1.128 -0.0197 -1.1577 -0.8420
 1714SOL    HW2 5275   3.379   0.876   0.999  1.2279  1.6962  0.1826
 1715SOL     OW 5276   0.431   2.746   0.746 -0.4310 -0.0744 -0.4658
 1715SOL    HW1 5277   0.415   2.700   0.828 -1.3536 -1.5832 -1.4485
 1715SOL    HW2 5278   0.474   2.682   0.690  1.0729  1.2277 -0.8904
 1716SOL     OW 5279   0.322   1.739   3.198 -0.0617 -0.5297 -0.1531
 1716SOL    HW1 5280   0.398   1.792   3.223  1.7698 -3.0951  0.1336
 1716SOL    HW2 5281   0.319   1.745   3.103  0.3265 -0.1865 -0.1451
 1717SOL     OW 5282   2.967   2.622   3.387 -0.1489  0.1022 -0.3025
 1717SOL    HW1 5283   2.952   2.638   3.294  0.9816 -2.4746 -1.0195
 1717SOL    HW2 5284   3.017   2.540   3.390 -0.2514  0.0268  2.5941
 1718SOL     OW 5285   2.612   1.822   2.592  0.0228 -0.2972 -0.0024
 1718SOL    HW1 5286   2.653   1.893   2.543 -1.3480  1.0430  0.7305
 1718SOL    HW2 5287   2.599   1.856   2.680  0.5279 -1.9306  0.7486
 1719SOL     OW 5288   0.497   1.800   1.360 -0.2207 -0.1258  0.2107
 1719SOL    HW1 5289   0.439   1.855   1.308 -2.7521 -0.8901  2.0054
 1719SOL    HW2 5290   0.525   1.856   1.433  0.8460  0.0543 -0.3218
 1720SOL     OW 5291   1.237   0.574   2.905 -0.4874 -0.3766  0.0278
 1720SOL    HW1 5292   1.165   0.581   2.968 -1.0124  0.5922 -0.6515
 1720SOL    HW2 5293   1.243   0.661   2.865 -0.7780 -1.1997 -1.9170
 1721SOL     OW 5294   0.573   2.597   3.465  0.6369 -0.2440 -0.3232
 1721SOL    HW1 5295   0.523   2.570   3.389  1.1253 -0.9251 -0.4168
 1721SOL    HW2 5296   0.553   2.531   3.532 -0.0129  0.5102  0.2323
 1722SOL     OW 5297   2.088   3.624   3.350  0.4703  0.5033 -0.1567
 1722SOL    HW1 5298   2.170   3.658   3.315  1.3319 -1.2008  0.0919
 1722SOL    HW2 5299   2.041   3.591   3.274 -0.6564  2.6457 -0.4897
 1723SOL     OW 5300   3.501   1.465   0.737  0.5099  0.3955  0.4044
 1723SOL    HW1 5301   3.495   1.474   0.642  1.1751 -1.7841  0.0917
 1723SOL    HW2 5302   3.414   1.489   0.769  0.6182  2.3219 -0.6031
 1724SOL     OW 5303   1.875   0.380   3.365  0.1135 -0.2150  0.0980
 1724SOL    HW1 5304   1.900   0.373   3.457 -2.2855 -1.5766  0.7215
 1724SOL    HW2 5305   1.805   0.316   3.354 -0.2014  0.4595 -2.5060
 1725SOL     OW 5306   0.837   1.547   1.879 -0.1961  0.1636 -0.3199
 1725SOL    HW1 5307   0.810   1.543   1.787  0.6059 -0.4828 -0.5320
 1725SOL    HW2 5308   0.833   1.457   1.909  2.1124 -0.0397 -0.4817
 1726SOL     OW 5309   3.674   3.020   2.869 -0.1254  0.5934  0.1831
 1726SOL    HW1 5310   3.648   3.086   2.934 -2.6356  1.8837 -1.9198
 1726SOL    HW2 5311   3.764   3.042   2.848  0.0557  1.4657  1.7010
 1727SOL     OW 5312   2.766   0.814   0.294 -0.0561 -0.0444  0.2773
 1727SOL    HW1 5313   2.819   0.770   0.360  1.9712  0.8302 -0.7082
 1727SOL    HW2 5314   2.715   0.743   0.253  0.9529 -1.0332  0.6861
 1728SOL     OW 5315   0.150   0.549   2.449 -0.5710  0.3158 -0.3673
 1728SOL    HW1 5316   0.167   0.466   2.405 -0.3841  0.5698 -0.7731
 1728SOL    HW2 5317   0.056   0.547   2.470 -0.1695 -0.9618  1.6167
 1729SOL     OW 5318   0.806   0.482   0.053 -0.6999  0.4250  0.0856
 1729SOL    HW1 5319   0.868   0.499  -0.017  0.0563  0.6600  0.7931
 1729SOL    HW2 5320   0.846   0.412   0.105 -2.1251 -1.0911 -0.7614
 1730SOL     OW 5321   3.350   3.523   0.028 -0.3044 -0.3676 -0.4418
 1730SOL    HW1 5322   3.433   3.549  -0.011 -1.0205  1.2432 -0.9619
 1730SOL    HW2 5323   3.359   3.541   0.121  0.5843 -2.0295 -0.1708
 1731SOL     OW 5324   1.444   2.968   2.584 -0.1837 -0.0807  0.7761
 1731SOL    HW1 5325   1.464   2.899   2.521  1.5885  0.9754  0.1176
 1731SOL    HW2 5326   1.424   2.922   2.665  0.4573 -1.3913  0.2096
 1732SOL     OW 5327   0.925   0.475   0.808  0.1369  0.3282 -0.1743
 1732SOL    HW1 5328   0.994   0.532   0.842 -1.3076  0.8338  2.2083
 1732SOL    HW2 5329   0.864   0.535   0.764 -0.3997  0.3900  0.6231
 1733SOL     OW 5330   0.253   2.502   2.599 -0.5331  0.1138 -0.2145
 1733SOL    HW1 5331   0.303   2.536   2.673 -0.0987 -0.7351 -0.0999
 1733SOL    HW2 5332   0.286   2.412   2.588  1.1962  0.9652 -2.9899
 1734SOL     OW 5333   2.286   0.605   0.904  0.6016 -0.0232  0.5463
 1734SOL    HW1 5334   2.287   0.510   0.918 -0.7152 -0.1329  0.0462
 1734SOL    HW2 5335   2.374   0.626   0.873  0.9312 -1.0677  0.7343
 1735SOL     OW 5336   2.647   1.173   2.601  0.0854 -0.1499 -0.0463
 1735SOL    HW1 5337   2.638   1.258   2.557 -0.2598 -1.4641 -2.7172
 1735SOL    HW2 5338   2.633   1.109   2.531 -0.3810 -2.4277  2.0252
 1736SOL     OW 5339   3.707   3.220   3.331 -0.2991  0.1051  0.1918
 1736SOL    HW1 5340   3.791   3.263   3.317 -0.6512  0.8734  0.4267
 1736SOL    HW2 5341   3.690   3.229   3.425 -0.0903 -1.0861  0.3592
 1737SOL     OW 5342   2.323   3.692   0.086 -0.0869 -0.5914 -0.2278
 1737SOL    HW1 5343   2.393   3.674   0.149  0.1385 -3.3395 -1.1117
 1737SOL    HW2 5344   2.250   3.722   0.139  0.5024 -1.6125  1.2148
 1738SOL     OW 5345   0.899   3.265   0.326 -0.0156 -0.1637 -1.2021
 1738SOL    HW1 5346   0.858   3.180   0.341  0.0838  0.1665  1.3544
 1738SOL    HW2 5347   0.845   3.326   0.375  1.0902  0.9307 -1.2990
 1739SOL     OW 5348   0.942   3.376   3.610  0.0828  0.0538 -0.1825
 1739SOL    HW1 5349   0.940   3.410   3.700  1.3056  0.4897 -0.3003
 1739SOL    HW2 5350   0.927   3.282   3.620  0.3907  0.0686  0.5016
 1740SOL     OW 5351   1.041   3.465   0.533 -0.1322  0.1946 -0.2297
 1740SOL    HW1 5352   0.992   3.548   0.531 -1.7862 -0.7607 -1.1262
 1740SOL    HW2 5353   0.986   3.406   0.583 -1.4166 -1.7483 -3.6229
 1741SOL     OW 5354   1.165   2.967   2.298 -0.1312 -0.4017  0.1985
 1741SOL    HW1 5355   1.208   2.884   2.283 -1.6024 -1.2159  0.2635
 1741SOL    HW2 5356   1.164   3.010   2.213  0.8547 -0.3197  0.2183
 1742SOL     OW 5357   2.913   2.796   0.897 -0.4755  0.4543 -0.2652
 1742SOL    HW1 5358   2.963   2.798   0.979 -2.5683 -0.5513  1.1127
 1742SOL    HW2 5359   2.861   2.876   0.898 -1.7398 -0.3436  0.2534
 1743SOL     OW 5360   0.147   0.049   0.769  0.5818  0.1133 -0.5447
 1743SOL    HW1 5361   0.102   0.129   0.795 -0.3884 -0.3597 -0.7262
 1743SOL    HW2 5362   0.079  -0.006   0.729  1.2385 -0.7795 -0.4812
 1744SOL     OW 5363   3.102   3.236   1.728 -0.1609  0.5572  0.6691
 1744SOL    HW1 5364   3.151   3.188   1.795 -0.9731 -0.5866  0.4862
 1744SOL    HW2 5365   3.088   3.171   1.659 -0.8319  1.2284  0.1623
 1745SOL     OW 5366   1.711   0.862   2.870  0.2421  0.1017 -0.0305
 1745SOL    HW1 5367   1.649   0.925   2.907 -0.8080 -0.4783 -0.7393
 1745SOL    HW2 5368   1.744   0.905   2.791  0.4330  0.2460  0.1277
 1746SOL     OW 5369   3.233   0.380   3.138 -0.4130  0.3984 -0.6010
 1746SOL    HW1 5370   3.185   0.388   3.221  4.0230  0.7428  2.2611
 1746SOL    HW2 5371   3.235   0.285   3.122 -1.6719  0.3531 -0.6077
 1747SOL     OW 5372   0.687   0.279   1.355  0.2281 -0.4185 -0.6740
 1747SOL    HW1 5373   0.598   0.302   1.381  0.2215  1.8727 -2.4944
 1747SOL    HW2 5374   0.684   0.271   1.260  2.2882  1.5737 -0.9964
 1748SOL     OW 5375   0.940   3.485   0.142 -0.3330  0.0334  0.7292
 1748SOL    HW1 5376   1.020   3.534   0.164  1.3814 -1.5659 -1.4625
 1748SOL    HW2 5377   0.942   3.409   0.199 -2.1365  1.5768  2.9917
 1749SOL     OW 5378   1.158   0.682   3.282  0.2259  0.7852  0.9692
 1749SOL    HW1 5379   1.205   0.763   3.266  1.2022 -0.3540 -3.3141
 1749SOL    HW2 5380   1.115   0.662   3.199 -1.7597 -2.0231  2.4768
 1750SOL     OW 5381   1.130   0.761   3.683  0.5258 -1.0070 -0.4427
 1750SOL    HW1 5382   1.199   0.778   3.747  1.0730 -2.2488 -0.6678
 1750SOL    HW2 5383   1.051   0.749   3.736  0.4043  0.7108 -0.2026
 1751SOL     OW 5384   2.405   3.527   0.906 -0.9715  0.3714 -0.1463
 1751SOL    HW1 5385   2.447   3.492   0.827 -1.9807 -1.6478  0.1496
 1751SOL    HW2 5386   2.325   3.568   0.874 -0.0315  2.0627 -0.4385
 1752SOL     OW 5387   1.377   2.793   3.163 -0.2891  0.1838 -0.1701
 1752SOL    HW1 5388   1.371   2.700   3.184  0.7825 -0.0834 -0.9549
 1752SOL    HW2 5389   1.469   2.815   3.178 -0.7046  1.3452  0.8542
 1753SOL     OW 5390   3.330   3.220   3.018 -0.4620 -0.1663  0.1558
 1753SOL    HW1 5391   3.330   3.301   2.967 -3.6848 -1.1729 -1.7252
 1753SOL    HW2 5392   3.257   3.230   3.080 -1.2862 -1.7636 -0.4850
 1754SOL     OW 5393   0.856   2.654   2.475 -0.0690 -0.5801 -0.1338
 1754SOL    HW1 5394   0.911   2.625   2.403  0.9072 -0.6972  0.6288
 1754SOL    HW2 5395   0.851   2.749   2.466  2.1754 -0.3004  1.0645
 1755SOL     OW 5396   1.344   0.681   2.205 -0.5548 -0.6046 -0.7154
 1755SOL    HW1 5397   1.295   0.763   2.213 -1.5210 -1.2655  0.5056
 1755SOL    HW2 5398   1.429   0.708   2.170 -0.5323  1.0512  0.4525
 1756SOL     OW 5399   1.028   0.818   2.442  1.0167  0.5551  0.5218
 1756SOL    HW1 5400   1.006   0.856   2.357 -0.5082  1.0038  1.0860
 1756SOL    HW2 5401   1.077   0.886   2.487 -2.9581  2.7174  2.1099
 1757SOL     OW 5402   0.055   0.300   0.728  0.5547 -0.0838 -0.3261
 1757SOL    HW1 5403   0.121   0.317   0.796  0.8454  0.4254 -0.7348
 1757SOL    HW2 5404   0.009   0.384   0.718  1.1935  0.1402 -1.4874
 1758SOL     OW 5405   0.827   0.869   3.163 -0.2095 -0.1589  0.1133
 1758SOL    HW1 5406   0.865   0.817   3.234 -0.7031  1.1051  1.3577
 1758SOL    HW2 5407   0.762   0.925   3.206 -1.5704 -0.3590 -1.5659
 1759SOL     OW 5408   0.353   1.489   2.962  0.0668 -0.0001 -0.6206
 1759SOL    HW1 5409   0.329   1.572   2.920  1.2599  0.6617 -0.0690
 1759SOL    HW2 5410   0.426   1.513   3.019 -0.7754 -1.0812  0.9703
 1760SOL     OW 5411   2.505   3.595   0.288  0.2634 -0.2034 -0.0043
 1760SOL    HW1 5412   2.528   3.555   0.204 -1.8342 -1.2892 -0.1182
 1760SOL    HW2 5413   2.580   3.576   0.344  0.7518 -1.4313 -1.0153
 1761SOL     OW 5414   2.842   2.566   0.414 -0.2299 -0.3329  0.1313
 1761SOL    HW1 5415   2.827   2.556   0.320 -1.5902 -0.3944  0.3401
 1761SOL    HW2 5416   2.937   2.575   0.422 -0.0592 -0.7241 -1.2070
 1762SOL     OW 5417   0.114   3.656   3.472  0.0486  0.5783 -0.3261
 1762SOL    HW1 5418   0.063   3.718   3.525 -2.3873 -0.4441 -1.3059
 1762SOL    HW2 5419   0.141   3.588   3.533  0.0890  1.0640  0.2011
 1763SOL     OW 5420   0.414   3.506   0.197  0.0611  0.1279 -0.1224
 1763SOL    HW1 5421   0.357   3.429   0.186 -1.2758  1.2205 -1.2886
 1763SOL    HW2 5422   0.488   3.489   0.139  1.7846 -1.9627  2.4536
 1764SOL     OW 5423   1.156   2.472   1.135 -0.8716  1.0923  0.2751
 1764SOL    HW1 5424   1.069   2.501   1.108 -0.5775  2.3749  0.6021
 1764SOL    HW2 5425   1.206   2.465   1.053 -1.4535 -0.3269  0.0210
 1765NA      NA 5426   2.845   3.483   0.033 -0.6105  0.0078  0.0510
 1766NA      NA 5427   1.639   0.309   2.889  0.4072 -0.1605  0.3023
 1767NA      NA 5428   0.139   3.033   0.724 -0.0496 -0.1974  0.0795
   3.73570   3.73570   3.73570
