Protein in water
 5433
    0TYR      N    1   0.046   1.138   1.095 -0.0647 -0.3805  0.0574
    0TYR     H1    2   0.117   1.137   1.019  0.2187  1.4174  0.2382
    0TYR     H2    3   0.002   1.229   1.071 -0.9331 -0.5548  0.9372
    0TYR     H3    4  -0.025   1.063   1.084 -0.8008  0.0596  1.5342
    0TYR     CA    5   0.096   1.135   1.233 -0.6342 -0.4501  0.0235
    0TYR     HA    6   0.024   1.185   1.296 -1.6009 -1.6849 -0.0646
    0TYR     CB    7   0.104   0.984   1.281  0.4645  0.1805 -0.0199
    0TYR    HB1    8  -0.001   0.949   1.283  0.3610  0.0971 -2.9515
    0TYR    HB2    9   0.134   0.970   1.387 -0.8983 -2.0764  0.1326
    0TYR     CG   10   0.186   0.885   1.204  0.1301 -0.3133 -0.1998
    0TYR    CD1   11   0.144   0.835   1.082  1.5152 -0.1812 -0.3445
    0TYR    HD1   12   0.050   0.857   1.033  1.1511  0.4226  0.6049
    0TYR    CE1   13   0.230   0.747   1.017 -0.8229  0.0302  0.4334
    0TYR    HE1   14   0.199   0.718   0.918 -1.0322 -1.7651  0.9866
    0TYR     CZ   15   0.360   0.717   1.064  0.4326  0.3727 -1.3842
    0TYR     OH   16   0.447   0.625   0.986  0.2104 -0.6115 -0.5953
    0TYR     HH   17   0.529   0.621   1.034 -0.9018 -2.5556  1.3320
    0TYR    CD2   18   0.307   0.852   1.258 -0.6831 -0.0133 -0.0051
    0TYR    HD2   19   0.353   0.907   1.339  1.0807 -1.0495 -0.2365
    0TYR    CE2   20   0.395   0.766   1.189 -0.6369 -0.8386  0.4601
    0TYR    HE2   21   0.493   0.759   1.233 -0.0204  1.1973 -0.4508
    0TYR      C   22   0.224   1.205   1.244  0.0747  0.6002  1.1682
    0TYR      O   23   0.280   1.220   1.141 -0.4208  0.5656  0.0381
    1TYR      N   24   0.272   1.250   1.362  0.0354 -0.7004  1.3004
    1TYR     HN   25   0.223   1.240   1.448  3.8176 -1.5991  3.5431
    1TYR     CA   26   0.407   1.298   1.380  0.4524 -0.3428 -0.2470
    1TYR     HA   27   0.440   1.357   1.295 -1.7158 -0.6322 -1.3620
    1TYR     CB   28   0.408   1.400   1.495 -1.1067  0.0055  0.0044
    1TYR    HB1   29   0.387   1.354   1.594 -3.3371  1.4669  0.2735
    1TYR    HB2   30   0.325   1.468   1.465 -2.2595 -0.4994  1.8661
    1TYR     CG   31   0.529   1.484   1.503 -0.0145  0.5529  0.0454
    1TYR    CD1   32   0.548   1.597   1.422  0.8008  0.1930  0.5816
    1TYR    HD1   33   0.471   1.613   1.348  0.4901 -0.5473  0.7398
    1TYR    CE1   34   0.670   1.671   1.430  0.0156 -0.1808  0.0368
    1TYR    HE1   35   0.693   1.761   1.375  1.8598 -0.7172 -0.1586
    1TYR     CZ   36   0.772   1.629   1.512  0.0224 -0.0032 -0.1458
    1TYR     OH   37   0.892   1.692   1.532 -0.1270 -0.4584  0.3657
    1TYR     HH   38   0.952   1.637   1.583  0.0300 -2.2001 -1.5880
    1TYR    CD2   39   0.626   1.445   1.589 -0.5834 -0.0603  0.1855
    1TYR    HD2   40   0.610   1.364   1.658  0.5986  0.4446  1.0911
    1TYR    CE2   41   0.746   1.521   1.593  0.6317  0.3173 -0.5035
    1TYR    HE2   42   0.813   1.492   1.674 -0.9102  1.4835  1.2857
    1TYR      C   43   0.502   1.187   1.409 -0.0372 -0.7147  0.1898
    1TYR      O   44   0.491   1.118   1.505  0.1994  0.4980 -0.3240
    2ASP      N   45   0.603   1.163   1.318  0.3433  0.5960 -0.0593
    2ASP     HN   46   0.598   1.220   1.237 -0.2132  0.6948  0.0372
    2ASP     CA   47   0.701   1.059   1.338  0.5704 -0.0186  0.6161
    2ASP     HA   48   0.669   0.988   1.413  0.3822  1.8636  2.4172
    2ASP     CB   49   0.739   0.993   1.197 -0.3537  0.3630 -0.4628
    2ASP    HB1   50   0.782   1.067   1.127  0.9969  1.1928  1.1874
    2ASP    HB2   51   0.651   0.939   1.157 -1.3390 -0.0380  2.0391
    2ASP     CG   52   0.835   0.881   1.215 -0.7280  0.6183 -0.1180
    2ASP    OD1   53   0.819   0.795   1.304 -0.8251 -0.2588 -0.1109
    2ASP    OD2   54   0.930   0.881   1.134  0.0304 -0.6753  0.1579
    2ASP      C   55   0.819   1.131   1.406 -0.1426  0.2644 -0.3337
    2ASP      O   56   0.891   1.210   1.345 -0.4506 -0.3152  0.3497
    3PRO      N   57   0.861   1.098   1.530 -0.2965  0.0645 -0.2514
    3PRO     CD   58   0.776   1.046   1.635  0.3182  0.2597 -0.5293
    3PRO    HD1   59   0.673   1.087   1.623 -0.9169 -1.8181  2.0518
    3PRO    HD2   60   0.771   0.935   1.630  1.3897  0.2064 -0.6053
    3PRO     CA   61   0.978   1.164   1.592 -0.4596  0.0602  1.0995
    3PRO     HA   62   0.957   1.269   1.581  0.1156  0.1070  0.3951
    3PRO     CB   63   0.977   1.114   1.732  0.5554 -0.1239 -0.5917
    3PRO    HB1   64   1.021   1.184   1.806  2.3976 -1.0686 -0.7369
    3PRO    HB2   65   1.029   1.015   1.733  0.1029 -0.3657 -0.6871
    3PRO     CG   66   0.831   1.099   1.763  0.4689  0.4835 -0.2805
    3PRO    HG1   67   0.777   1.193   1.785  0.5501  0.7275 -1.1016
    3PRO    HG2   68   0.826   1.017   1.838 -1.9772  0.2351 -0.6203
    3PRO      C   69   1.114   1.133   1.520 -0.2238  0.3665  0.7295
    3PRO      O   70   1.204   1.218   1.523 -0.7320 -0.2898  0.0711
    4GLU      N   71   1.129   1.002   1.477 -0.4116  0.6606 -0.3356
    4GLU     HN   72   1.058   0.938   1.503 -1.7772  1.1346 -2.6387
    4GLU     CA   73   1.242   0.960   1.403 -0.4767 -0.2671  0.4356
    4GLU     HA   74   1.329   0.961   1.467 -0.2542 -2.5330  0.2638
    4GLU     CB   75   1.230   0.812   1.354  0.0949  0.1019  0.6432
    4GLU    HB1   76   1.332   0.769   1.340 -0.9131 -3.0027  2.1752
    4GLU    HB2   77   1.167   0.807   1.263  1.4149 -3.6538 -0.2463
    4GLU     CG   78   1.168   0.702   1.447 -0.0224  0.6242  0.1746
    4GLU    HG1   79   1.171   0.606   1.391  1.1641  1.8860 -2.0369
    4GLU    HG2   80   1.063   0.731   1.471  0.5002  0.7682  2.5446
    4GLU     CD   81   1.249   0.674   1.569  0.4436  0.9164 -0.2305
    4GLU    OE1   82   1.257   0.755   1.665  0.3851  0.1319  0.9845
    4GLU    OE2   83   1.315   0.569   1.568  0.5025  0.2200  0.0498
    4GLU      C   84   1.268   1.047   1.272  0.7683 -0.1699 -0.0995
    4GLU      O   85   1.377   1.097   1.247 -0.8948 -0.1540  0.7381
    5THR      N   86   1.162   1.066   1.190  0.0841 -0.0855  0.2493
    5THR     HN   87   1.076   1.019   1.209 -0.7233  1.1839 -0.1270
    5THR     CA   88   1.173   1.156   1.072 -0.8483 -0.1218 -0.5297
    5THR     HA   89   1.269   1.141   1.024  0.0768 -0.4103  1.3199
    5THR     CB   90   1.062   1.122   0.980 -0.1183 -0.7343 -0.1626
    5THR     HB   91   0.963   1.151   1.019 -0.0747  0.6878 -1.0124
    5THR    OG1   92   1.059   0.984   0.947 -0.1640 -0.3144  0.2871
    5THR    HG1   93   0.997   0.943   1.008 -3.2817  0.8412 -1.8606
    5THR    CG2   94   1.100   1.183   0.840  0.3549  0.5462 -0.1148
    5THR   HG21   95   1.103   1.293   0.823  1.2722  0.8251  1.6333
    5THR   HG22   96   1.035   1.143   0.759  0.7483  0.3465 -0.3318
    5THR   HG23   97   1.208   1.164   0.823 -0.0560 -0.7082 -1.5543
    5THR      C   98   1.150   1.308   1.109  0.0478 -0.2708 -0.0898
    5THR      O   99   1.170   1.395   1.029 -0.3574  0.0481  0.0504
    6GLY      N  100   1.099   1.335   1.235 -0.8713 -0.3481  1.0583
    6GLY     HN  101   1.081   1.254   1.291 -0.9542 -1.5097 -0.5695
    6GLY     CA  102   1.086   1.464   1.305  0.2856  0.7545 -0.0154
    6GLY    HA1  103   1.181   1.516   1.303 -0.1593  1.5670 -0.3917
    6GLY    HA2  104   1.053   1.429   1.401  1.9005  0.7812  0.5724
    6GLY      C  105   0.980   1.563   1.255  0.2706 -0.4187 -0.5650
    6GLY      O  106   0.995   1.685   1.266  0.3257  0.0432 -0.7538
    7THR      N  107   0.873   1.515   1.199 -0.7984  0.0310  0.6215
    7THR     HN  108   0.860   1.417   1.212  0.3497 -0.3253 -0.6078
    7THR     CA  109   0.787   1.591   1.109  0.3939 -1.0620 -0.0559
    7THR     HA  110   0.756   1.677   1.166  1.8700 -0.1581 -0.5566
    7THR     CB  111   0.850   1.629   0.971 -0.0003 -0.5900 -0.9201
    7THR     HB  112   0.949   1.669   1.000 -1.0084  1.7814 -0.5661
    7THR    OG1  113   0.781   1.738   0.915  0.0875 -0.2606  0.4552
    7THR    HG1  114   0.787   1.814   0.973  0.8138 -0.4008  0.5706
    7THR    CG2  115   0.870   1.509   0.876 -0.2284  0.0367  0.1742
    7THR   HG21  116   0.906   1.556   0.782  0.3776  2.2483  1.4608
    7THR   HG22  117   0.774   1.461   0.845 -1.6796  1.7045  1.8490
    7THR   HG23  118   0.950   1.446   0.921  0.4003  1.5356  1.2098
    7THR      C  119   0.662   1.511   1.082  0.3151 -0.6711  0.3043
    7THR      O  120   0.648   1.405   1.131 -0.5747 -0.1450 -0.1733
    8TRP      N  121   0.573   1.563   0.999  0.9159 -0.6082  0.2316
    8TRP     HN  122   0.587   1.655   0.964 -1.6971 -1.1147 -2.4709
    8TRP     CA  123   0.450   1.506   0.957 -0.2100  0.0320  0.7205
    8TRP     HA  124   0.396   1.465   1.041 -0.4801 -0.6877  0.2121
    8TRP     CB  125   0.356   1.611   0.896  0.3172 -0.2347 -0.5344
    8TRP    HB1  126   0.265   1.561   0.857  1.5255 -1.2076 -2.2788
    8TRP    HB2  127   0.411   1.659   0.812 -2.8084  0.1734 -2.5166
    8TRP     CG  128   0.325   1.722   0.991  0.1639 -0.7913 -0.1661
    8TRP    CD1  129   0.368   1.850   0.977  0.7311  0.6422  0.1431
    8TRP    HD1  130   0.414   1.887   0.886  0.3868  0.7927  0.0277
    8TRP    NE1  131   0.331   1.921   1.089  0.2365  0.1721 -0.0392
    8TRP    HE1  132   0.355   2.013   1.111  0.8117 -0.3446  1.6674
    8TRP    CE2  133   0.276   1.837   1.184 -0.3463 -0.2737 -0.4728
    8TRP    CD2  134   0.278   1.707   1.127 -0.2715 -0.4997  0.3112
    8TRP    CE3  135   0.219   1.604   1.202 -0.5319  0.4129  0.4390
    8TRP    HE3  136   0.207   1.502   1.168  3.7128  0.3071 -1.4460
    8TRP    CZ3  137   0.166   1.633   1.331  0.6270 -0.2542 -0.8708
    8TRP    HZ3  138   0.117   1.549   1.378 -0.7848 -0.4337 -2.5799
    8TRP    CZ2  139   0.242   1.861   1.318 -0.3496 -0.0213  0.2056
    8TRP    HZ2  140   0.253   1.961   1.356  0.4102  0.4542 -1.2293
    8TRP    CH2  141   0.184   1.750   1.390  0.1116  0.9741 -0.0117
    8TRP    HH2  142   0.176   1.762   1.497  1.9713 -1.7938  0.5283
    8TRP      C  143   0.459   1.396   0.851  0.2160 -0.0490  0.4106
    8TRP      O  144   0.526   1.404   0.745  0.2127 -0.1673  0.3962
    9LYS      N  145   0.388   1.288   0.881  0.4370  0.1954 -0.2284
    9LYS     HN  146   0.342   1.294   0.969 -2.7029  2.6368 -1.8435
    9LYS     CA  147   0.372   1.172   0.799  0.7039  0.4767 -0.2836
    9LYS     HA  148   0.432   1.189   0.710  2.4001 -3.0954 -0.0171
    9LYS     CB  149   0.427   1.041   0.862  0.2338  0.7490  0.6224
    9LYS    HB1  150   0.398   0.953   0.800  2.1228 -0.2624  1.0989
    9LYS    HB2  151   0.384   1.021   0.962 -3.9902 -2.1867 -1.4911
    9LYS     CG  152   0.577   1.036   0.852  1.0425 -0.2698  0.1062
    9LYS    HG1  153   0.608   1.086   0.758 -2.1371 -0.8610 -1.3984
    9LYS    HG2  154   0.614   1.093   0.940  1.1479 -3.1468  2.0693
    9LYS     CD  155   0.644   0.901   0.871  0.0075  0.7846 -0.3830
    9LYS    HD1  156   0.631   0.866   0.976 -1.5966  0.3185 -0.7121
    9LYS    HD2  157   0.579   0.829   0.818 -2.0229  1.4843  1.0321
    9LYS     CE  158   0.792   0.895   0.832 -0.3448  0.2283 -0.6441
    9LYS    HE1  159   0.849   0.829   0.900  3.5875  2.5697 -1.3411
    9LYS    HE2  160   0.845   0.993   0.837  3.1283 -1.5159  0.1252
    9LYS     NZ  161   0.799   0.840   0.698 -0.5355  0.1733  0.2428
    9LYS    HZ1  162   0.881   0.875   0.645 -0.5714  0.1707  0.1854
    9LYS    HZ2  163   0.799   0.736   0.701 -2.8102  0.1056  3.3454
    9LYS    HZ3  164   0.726   0.882   0.637  0.8428 -1.3601 -2.6334
    9LYS      C  165   0.229   1.146   0.751 -0.0745  0.4364  0.8623
    9LYS    OT1  166   0.145   1.101   0.837  0.0171 -0.4616  0.4806
    9LYS    OT2  167   0.196   1.176   0.633 -0.1955 -0.3109 -0.5230
   10SOL     OW  168   3.202   0.169   3.303  0.2756 -0.0912  1.0719
   10SOL    HW1  169   3.218   0.231   3.232  1.9825  0.4306  1.8343
   10SOL    HW2  170   3.180   0.087   3.259  1.0726  0.2741 -0.0668
   11SOL     OW  171   0.809   0.286   1.742 -0.3446  0.1739  0.4502
   11SOL    HW1  172   0.876   0.325   1.799 -1.7972  2.1820  0.8886
   11SOL    HW2  173   0.794   0.352   1.674 -0.3933 -1.1608 -0.8982
   12SOL     OW  174   3.108   3.366   0.577 -1.0972  0.3237 -0.2331
   12SOL    HW1  175   3.023   3.323   0.578 -0.9761  0.0701 -0.6236
   12SOL    HW2  176   3.166   3.304   0.533 -0.7453  0.5566 -0.1017
   13SOL     OW  177   3.549   0.683   2.827 -0.2273 -0.1301 -0.6329
   13SOL    HW1  178   3.632   0.722   2.799  2.2492 -2.7953  2.1608
   13SOL    HW2  179   3.513   0.746   2.889  1.5011 -0.2963  0.6151
   14SOL     OW  180   2.464   1.323   1.613  0.0073  0.2425  0.0643
   14SOL    HW1  181   2.499   1.400   1.658  1.3506  0.4217 -1.2193
   14SOL    HW2  182   2.469   1.345   1.520  0.3246 -1.3659 -0.3297
   15SOL     OW  183   3.436   1.081   1.594  0.7703  0.0786  0.1885
   15SOL    HW1  184   3.500   1.010   1.599  0.6188 -0.1073 -0.4817
   15SOL    HW2  185   3.448   1.118   1.506  1.3287  1.3292  0.7526
   16SOL     OW  186   1.758   0.284   1.352 -0.1989 -0.1508  0.0640
   16SOL    HW1  187   1.844   0.320   1.371  0.6062 -2.0118  0.1687
   16SOL    HW2  188   1.697   0.342   1.396  1.0131  1.0429  0.2216
   17SOL     OW  189   2.074   2.883   3.525 -0.2854  0.2896 -0.3153
   17SOL    HW1  190   2.117   2.828   3.459 -1.2554  2.5477 -3.0020
   17SOL    HW2  191   2.084   2.834   3.607  3.3082 -1.4377 -1.5805
   18SOL     OW  192   1.783   1.463   3.227 -0.4902 -0.5703 -0.4274
   18SOL    HW1  193   1.692   1.437   3.240 -0.7003 -0.1607 -1.0741
   18SOL    HW2  194   1.826   1.440   3.310 -1.2952 -0.2178  0.1001
   19SOL     OW  195   1.632   0.969   3.353  0.9729 -0.5630 -0.0142
   19SOL    HW1  196   1.566   0.994   3.288 -0.6951 -0.4620  1.6306
   19SOL    HW2  197   1.692   1.043   3.356  0.7806 -0.3515 -1.0585
   20SOL     OW  198   1.515   1.904   0.147  0.9648  0.1893 -0.1620
   20SOL    HW1  199   1.505   1.831   0.208 -1.4427  1.8317  1.5314
   20SOL    HW2  200   1.582   1.959   0.186  0.7376  0.3286  0.0267
   21SOL     OW  201   0.862   0.542   2.310 -0.4528  0.7337 -0.2666
   21SOL    HW1  202   0.916   0.569   2.384  1.1458  0.7000 -1.3691
   21SOL    HW2  203   0.923   0.537   2.237 -1.1377 -3.0959 -0.7783
   22SOL     OW  204   0.043   1.580   0.251 -0.3141 -0.0036  0.5530
   22SOL    HW1  205  -0.052   1.591   0.249 -0.4473 -0.7075  1.7476
   22SOL    HW2  206   0.065   1.582   0.344  0.8335  0.0848  0.2930
   23SOL     OW  207   2.194   1.945   1.708 -0.0518 -0.2862 -1.1893
   23SOL    HW1  208   2.242   2.009   1.760 -0.5962 -1.2576  0.5617
   23SOL    HW2  209   2.207   1.974   1.617 -0.2124  2.2341 -0.4766
   24SOL     OW  210   1.585   0.093   3.148  0.4913  0.0232 -0.0120
   24SOL    HW1  211   1.556   0.160   3.085  0.2865 -0.6666 -0.6655
   24SOL    HW2  212   1.516   0.027   3.146  0.6377 -0.1609  0.7149
   25SOL     OW  213   1.341   2.052   2.227  0.0400  0.3474 -0.1332
   25SOL    HW1  214   1.306   2.045   2.316  0.5009  0.3161  0.0473
   25SOL    HW2  215   1.301   1.978   2.181 -0.4874  0.5775 -0.0529
   26SOL     OW  216   3.505   2.017   1.625  0.2827  0.1543 -0.6680
   26SOL    HW1  217   3.596   1.992   1.644 -0.3909 -2.6840 -0.8351
   26SOL    HW2  218   3.503   2.112   1.641  2.4331 -0.1999  2.7784
   27SOL     OW  219   1.111   0.404   2.607  0.3311  0.1289  0.3955
   27SOL    HW1  220   1.092   0.315   2.578 -1.2030  0.6460 -0.3546
   27SOL    HW2  221   1.197   0.399   2.648  0.6725 -1.5107 -0.4371
   28SOL     OW  222   0.437   3.069   1.183  0.3990 -0.3616 -0.0165
   28SOL    HW1  223   0.527   3.101   1.192  0.0171  0.5775  0.6316
   28SOL    HW2  224   0.387   3.144   1.153 -0.3929 -0.5238  0.8473
   29SOL     OW  225   3.434   1.172   3.613 -0.7177  0.0163 -0.0761
   29SOL    HW1  226   3.382   1.218   3.678  1.4929  0.3926  1.5630
   29SOL    HW2  227   3.417   1.079   3.631 -0.5831  0.1272  0.6644
   30SOL     OW  228   2.051   1.330   3.301 -0.2114  0.5861  0.3603
   30SOL    HW1  229   2.043   1.392   3.228  2.7965  0.8481  0.1456
   30SOL    HW2  230   2.084   1.250   3.260  0.5947  0.4333  1.2802
   31SOL     OW  231   3.358   3.569   0.458 -0.4528 -0.4644 -0.0902
   31SOL    HW1  232   3.274   3.596   0.493  0.8232  2.5322  0.9733
   31SOL    HW2  233   3.390   3.503   0.520 -0.7773  0.4932  1.1154
   32SOL     OW  234   3.558   2.215   1.449 -0.9234  0.1123  0.7492
   32SOL    HW1  235   3.555   2.304   1.484  0.0895  0.6948 -0.5582
   32SOL    HW2  236   3.648   2.204   1.419 -1.6742 -0.3647 -1.5183
   33SOL     OW  237   0.882   2.854   3.256 -0.0102  0.1718 -0.2936
   33SOL    HW1  238   0.789   2.855   3.234  0.2130 -0.1748 -1.2692
   33SOL    HW2  239   0.924   2.903   3.186  0.4066  1.5604  0.8677
   34SOL     OW  240   3.587   2.450   1.607 -0.6247  0.5988  0.0696
   34SOL    HW1  241   3.539   2.532   1.596 -4.4810 -1.7276 -3.1669
   34SOL    HW2  242   3.552   2.412   1.688 -1.0221  0.7833 -0.0176
   35SOL     OW  243   0.517   3.564   3.159 -0.1876  0.1680 -0.2716
   35SOL    HW1  244   0.605   3.564   3.197 -0.7183  0.5154  1.0086
   35SOL    HW2  245   0.523   3.621   3.083 -0.1217  3.2488  1.8643
   36SOL     OW  246   0.670   2.036   3.118  0.4627 -0.1658  0.0007
   36SOL    HW1  247   0.706   2.125   3.120 -0.9458  0.4572  2.4725
   36SOL    HW2  248   0.734   1.983   3.166  1.0477 -0.4198 -1.0243
   37SOL     OW  249   2.217   2.561   2.723  0.4798  0.6688 -0.9512
   37SOL    HW1  250   2.211   2.645   2.677  0.0075  1.0687 -0.1711
   37SOL    HW2  251   2.302   2.526   2.697  1.5514  2.2792  0.2163
   38SOL     OW  252   3.302   1.470   2.493  0.4806 -0.3650  0.4551
   38SOL    HW1  253   3.210   1.455   2.472  0.3311  1.0508 -0.0369
   38SOL    HW2  254   3.303   1.486   2.588 -0.0326  1.0879  0.2469
   39SOL     OW  255   2.187   1.528   2.311 -0.6096  0.4890 -0.0741
   39SOL    HW1  256   2.184   1.526   2.215 -0.1535  0.1324 -0.0805
   39SOL    HW2  257   2.219   1.615   2.332 -0.3761  0.4470 -0.2542
   40SOL     OW  258   1.260   3.088   1.116  0.2352 -0.0178  0.0605
   40SOL    HW1  259   1.347   3.108   1.083  0.1323  0.3620  0.0235
   40SOL    HW2  260   1.235   3.165   1.167  1.2797 -1.3650  2.8767
   41SOL     OW  261   2.769   0.493   3.042 -0.0499 -0.2237  0.8404
   41SOL    HW1  262   2.718   0.481   3.123  1.6652  0.9778  2.1690
   41SOL    HW2  263   2.816   0.575   3.056 -0.0291  0.2374 -1.6043
   42SOL     OW  264   0.821   3.078   3.570 -0.2773  0.7860 -0.3788
   42SOL    HW1  265   0.861   3.159   3.539  0.0518  1.2411  1.1606
   42SOL    HW2  266   0.868   3.058   3.651 -0.7244 -0.6576 -0.4574
   43SOL     OW  267   2.673   1.220   0.550  0.7880 -0.4983 -0.4119
   43SOL    HW1  268   2.677   1.158   0.478  3.2959  0.7532 -1.4748
   43SOL    HW2  269   2.659   1.305   0.507  1.8310  0.2099  0.5942
   44SOL     OW  270   1.603   0.296   2.643  0.2880 -0.1407 -1.0172
   44SOL    HW1  271   1.583   0.277   2.552  1.6702 -0.3405 -1.3021
   44SOL    HW2  272   1.604   0.210   2.686 -0.5704 -0.0284 -0.7581
   45SOL     OW  273   3.541   2.943   3.207  0.4161 -0.6020  0.1507
   45SOL    HW1  274   3.494   3.018   3.243  0.2545  0.5779 -2.3491
   45SOL    HW2  275   3.619   2.980   3.167  0.3286 -1.7257 -1.1498
   46SOL     OW  276   0.763   3.599   3.470 -0.0824 -0.1467  0.6298
   46SOL    HW1  277   0.698   3.669   3.463  1.2934  1.3489  1.8037
   46SOL    HW2  278   0.796   3.586   3.381 -1.2471 -0.2124  0.1978
   47SOL     OW  279   1.550   0.685   0.928 -0.3903 -0.3067 -0.1160
   47SOL    HW1  280   1.515   0.757   0.980  0.1939  1.3627 -1.9237
   47SOL    HW2  281   1.473   0.639   0.895 -0.7805 -0.0953  0.4905
   48SOL     OW  282   2.270   3.180   2.833 -0.0481  0.3827  0.0173
   48SOL    HW1  283   2.290   3.157   2.743  0.7404  0.1881  0.2310
   48SOL    HW2  284   2.355   3.205   2.871  0.0489 -1.6859  1.3198
   49SOL     OW  285   2.700   2.179   2.149  0.0990 -0.4485  0.7600
   49SOL    HW1  286   2.630   2.138   2.098  0.6061  0.0085 -0.3470
   49SOL    HW2  287   2.714   2.120   2.223 -1.1132 -0.7976  0.7430
   50SOL     OW  288   2.393   3.228   2.087 -0.2415  0.4685  0.1826
   50SOL    HW1  289   2.409   3.322   2.084  0.5654  0.3441  0.5498
   50SOL    HW2  290   2.463   3.193   2.142  0.7512 -0.6195 -1.6866
   51SOL     OW  291   1.018   2.109   0.986 -0.4910 -0.5638 -0.2888
   51SOL    HW1  292   1.031   2.071   0.899  0.2540 -1.2371  0.1034
   51SOL    HW2  293   1.006   2.033   1.044 -0.2438 -0.1605  0.3055
   52SOL     OW  294   1.619   2.694   2.915 -0.7064 -0.1041 -0.5932
   52SOL    HW1  295   1.679   2.628   2.950 -0.9151 -0.0989 -0.2244
   52SOL    HW2  296   1.595   2.748   2.990 -0.0458  0.7879 -1.0074
   53SOL     OW  297   1.907   1.370   2.715  0.0269 -0.1236 -0.3228
   53SOL    HW1  298   1.817   1.381   2.685  0.3487 -0.3660 -1.4429
   53SOL    HW2  299   1.941   1.459   2.725  0.3407  0.0005 -2.1124
   54SOL     OW  300   1.114   3.388   0.637 -0.4649  0.0346  0.7318
   54SOL    HW1  301   1.208   3.405   0.637 -0.2170 -1.2290  0.9092
   54SOL    HW2  302   1.086   3.408   0.547  0.5016 -2.1202 -0.1252
   55SOL     OW  303   2.730   1.662   2.562 -0.4084  0.7727 -0.4223
   55SOL    HW1  304   2.782   1.741   2.549  0.0463  0.5540  0.0270
   55SOL    HW2  305   2.788   1.591   2.533  1.2332  0.0931  3.7923
   56SOL     OW  306   1.521   0.178   0.323 -0.6197 -0.2571 -0.0700
   56SOL    HW1  307   1.462   0.215   0.257 -1.3396 -1.6586 -0.2398
   56SOL    HW2  308   1.603   0.225   0.310 -1.4427  1.2036 -0.3311
   57SOL     OW  309   1.950   1.323   1.736 -0.3339  0.8254  1.2127
   57SOL    HW1  310   2.011   1.251   1.724  0.3264  1.0634  2.7827
   57SOL    HW2  311   1.902   1.300   1.816 -1.9832  0.8824  0.2765
   58SOL     OW  312   2.467   1.014   0.660  0.0061  0.2856 -0.2286
   58SOL    HW1  313   2.507   1.096   0.630 -1.2168  0.5713 -1.1599
   58SOL    HW2  314   2.426   1.037   0.744  0.8642  0.2519  0.2141
   59SOL     OW  315   1.331   0.099   2.080  0.6327 -0.3257 -0.1908
   59SOL    HW1  316   1.384   0.068   2.007  4.4173  1.0101  1.7284
   59SOL    HW2  317   1.333   0.027   2.143  2.3417  0.5866  0.8634
   60SOL     OW  318   2.714   3.026   3.707 -0.1512 -0.1539 -0.2589
   60SOL    HW1  319   2.731   2.960   3.640 -0.6294 -0.4150 -0.1277
   60SOL    HW2  320   2.652   2.984   3.767  2.3566 -1.0346  1.9468
   61SOL     OW  321   1.698   1.916   0.400 -0.0427 -0.6286 -0.3047
   61SOL    HW1  322   1.620   1.866   0.377  0.4208 -1.4450 -0.1612
   61SOL    HW2  323   1.701   1.989   0.338 -1.4970  0.0367  0.3618
   62SOL     OW  324   0.874   3.301   0.709 -0.1571 -0.0828  0.0852
   62SOL    HW1  325   0.819   3.329   0.635 -1.3564 -0.9035  0.6255
   62SOL    HW2  326   0.964   3.315   0.679 -0.6379  0.6642 -1.0945
   63SOL     OW  327   0.842   3.149   2.003 -0.8158  0.2553 -0.2529
   63SOL    HW1  328   0.883   3.121   2.085 -0.9508 -0.5346 -0.4480
   63SOL    HW2  329   0.758   3.187   2.030  0.3172  2.6110  0.2309
   64SOL     OW  330   3.515   1.890   3.470  0.0281 -0.5216 -0.0953
   64SOL    HW1  331   3.521   1.890   3.565  0.2983 -0.5093 -0.1111
   64SOL    HW2  332   3.473   1.807   3.448  0.3958 -0.7395  0.0092
   65SOL     OW  333   2.841   0.955   0.912 -0.3372  0.4733 -0.4820
   65SOL    HW1  334   2.777   0.924   0.976 -0.3184 -1.1084 -1.1609
   65SOL    HW2  335   2.796   1.024   0.864 -0.7692  0.8455  0.4449
   66SOL     OW  336  -0.022   1.504   2.637 -0.4789  0.8234  0.2311
   66SOL    HW1  337   0.046   1.571   2.645 -2.7324  3.2324  0.6394
   66SOL    HW2  338  -0.012   1.470   2.548  2.6936 -0.7066  1.0261
   67SOL     OW  339   0.165   2.092   3.642 -0.5706 -0.2865  0.3066
   67SOL    HW1  340   0.237   2.032   3.658  0.2699 -0.9727 -4.4266
   67SOL    HW2  341   0.207   2.173   3.613 -1.7164  0.4824  0.7305
   68SOL     OW  342   2.594   2.441   0.559  0.9207 -0.3823 -0.1852
   68SOL    HW1  343   2.671   2.495   0.539  0.1602  0.4552 -0.9264
   68SOL    HW2  344   2.526   2.473   0.500  0.1437 -1.4661  0.0909
   69SOL     OW  345   1.615   2.633   0.738 -0.2327  0.2424 -0.1012
   69SOL    HW1  346   1.711   2.634   0.738 -0.2200  1.5345  0.6977
   69SOL    HW2  347   1.591   2.674   0.821 -1.4684  0.9650 -0.7867
   70SOL     OW  348   0.680   2.033   3.617  0.8270  0.1477  0.6784
   70SOL    HW1  349   0.703   1.984   3.697 -0.1987 -0.8486  0.3795
   70SOL    HW2  350   0.608   2.090   3.644 -0.2890 -1.0007  0.2342
   71SOL     OW  351   0.760   1.856   1.835  0.4181 -0.1767 -0.3901
   71SOL    HW1  352   0.822   1.788   1.862 -1.4935 -1.9731 -0.2074
   71SOL    HW2  353   0.747   1.840   1.742 -1.1165 -1.0656 -0.0600
   72SOL     OW  354   0.853   1.270   2.527  0.2404  0.1031 -0.2518
   72SOL    HW1  355   0.877   1.329   2.455 -2.3508  1.7662  0.1079
   72SOL    HW2  356   0.771   1.229   2.498  0.2706 -0.8339  0.9033
   73SOL     OW  357   3.625   0.343   2.612  0.1635  0.3355 -0.0307
   73SOL    HW1  358   3.707   0.311   2.648  0.3450  0.6114 -0.1975
   73SOL    HW2  359   3.637   0.342   2.517 -0.8430 -1.8001 -0.1793
   74SOL     OW  360   2.314   3.696   0.482 -0.3015  0.7399 -0.2738
   74SOL    HW1  361   2.245   3.641   0.444 -0.1332  1.3459 -1.4978
   74SOL    HW2  362   2.290   3.703   0.574 -0.9452 -0.4522 -0.3196
   75SOL     OW  363   2.097   0.745   2.644  0.3444 -0.1825 -0.3667
   75SOL    HW1  364   2.162   0.811   2.621 -0.0023  0.0170 -0.7929
   75SOL    HW2  365   2.056   0.721   2.560 -1.7581  1.3918  0.1166
   76SOL     OW  366   0.740   0.159   1.989  0.1185  0.3470 -0.2206
   76SOL    HW1  367   0.773   0.165   1.899  0.6745 -2.9021 -0.3546
   76SOL    HW2  368   0.818   0.167   2.043  0.6701 -2.8730 -0.3535
   77SOL     OW  369   0.116   0.925   0.589  0.3015  0.0808  0.0896
   77SOL    HW1  370   0.190   0.864   0.599  0.9464  0.4928 -1.7378
   77SOL    HW2  371   0.153   1.010   0.613 -0.7688 -0.2481  3.2655
   78SOL     OW  372   0.760   0.577   0.268 -0.0502 -0.6354 -0.1139
   78SOL    HW1  373   0.828   0.640   0.245 -0.8935  0.5071  0.4059
   78SOL    HW2  374   0.805   0.509   0.317  0.7295  0.0513  0.1456
   79SOL     OW  375   0.756   3.160   0.266 -0.7101  0.3773 -0.0283
   79SOL    HW1  376   0.716   3.214   0.197 -1.1171 -0.1970 -0.2450
   79SOL    HW2  377   0.702   3.081   0.269  0.4717 -0.4724 -0.4118
   80SOL     OW  378   2.181   2.515   1.887  0.1814  0.1553 -0.3258
   80SOL    HW1  379   2.253   2.457   1.863  0.3535 -0.1087  0.7472
   80SOL    HW2  380   2.210   2.555   1.969 -0.6957  0.3981 -0.1253
   81SOL     OW  381   0.784   0.695   1.565  0.1942 -0.2911  0.4453
   81SOL    HW1  382   0.791   0.762   1.497 -0.2123 -0.0623  0.6220
   81SOL    HW2  383   0.812   0.614   1.523 -2.9268 -0.7932 -0.9913
   82SOL     OW  384   2.752   3.430   0.829 -0.3379 -0.3381  0.1206
   82SOL    HW1  385   2.715   3.391   0.909 -0.6036 -1.5269 -0.5627
   82SOL    HW2  386   2.694   3.401   0.759  1.2417 -1.3426 -0.8394
   83SOL     OW  387   3.469   2.594   3.264 -0.3999 -0.3068  0.3063
   83SOL    HW1  388   3.375   2.577   3.267 -0.7385  1.2746 -0.3060
   83SOL    HW2  389   3.506   2.520   3.217 -1.6978  0.2796 -1.7205
   84SOL     OW  390   2.243   2.720   3.359  0.1792  0.6142  0.4005
   84SOL    HW1  391   2.317   2.719   3.299 -0.2057  0.6294 -0.0830
   84SOL    HW2  392   2.263   2.652   3.423  0.7011  0.7509  0.3890
   85SOL     OW  393   0.852   2.737   1.410 -0.4941 -0.2383 -0.4122
   85SOL    HW1  394   0.874   2.829   1.396 -2.1892  0.3217  0.3479
   85SOL    HW2  395   0.937   2.692   1.416  0.3451  1.1323 -1.5588
   86SOL     OW  396   3.037   1.946   3.265  1.0523 -0.3035  0.6738
   86SOL    HW1  397   3.096   1.964   3.191  0.4724 -2.6907 -0.4635
   86SOL    HW2  398   3.071   1.866   3.304  0.6912  0.3243  2.3519
   87SOL     OW  399   0.336   2.382   2.939  0.0309 -0.1385  0.3731
   87SOL    HW1  400   0.379   2.465   2.960 -1.4459  0.7222  0.1706
   87SOL    HW2  401   0.405   2.328   2.901  0.8141  1.3700 -0.4490
   88SOL     OW  402   0.602   0.124   1.643 -0.0088 -0.2739 -0.0495
   88SOL    HW1  403   0.548   0.179   1.585 -0.4577  0.3029  0.8962
   88SOL    HW2  404   0.649   0.187   1.698  0.2197 -0.8161  0.3773
   89SOL     OW  405   1.598   0.882   2.090  0.3034 -0.8358 -0.0850
   89SOL    HW1  406   1.690   0.905   2.074 -0.2869  0.4828 -1.9003
   89SOL    HW2  407   1.596   0.786   2.087  1.6703 -0.9101  0.4568
   90SOL     OW  408   1.881   0.033   1.680  0.3138  0.0781 -0.6876
   90SOL    HW1  409   1.867  -0.037   1.744  1.6142  1.7563  1.5813
   90SOL    HW2  410   1.830   0.107   1.713  1.5834  1.2146 -1.1492
   91SOL     OW  411   3.038   2.000   1.273 -0.4848  0.2060 -0.7029
   91SOL    HW1  412   3.061   1.943   1.346  1.4058  0.2451 -1.2293
   91SOL    HW2  413   3.075   2.085   1.296  1.1987 -0.0688 -2.1960
   92SOL     OW  414   1.517   3.279   0.073  0.5203 -0.2036  0.5324
   92SOL    HW1  415   1.434   3.232   0.061  0.2588  0.4376 -0.2219
   92SOL    HW2  416   1.582   3.210   0.081  0.0608 -0.7036  0.0466
   93SOL     OW  417   0.263   2.535   0.577  0.5285 -0.2561  0.6344
   93SOL    HW1  418   0.232   2.493   0.497  2.3386 -1.5622  0.5634
   93SOL    HW2  419   0.183   2.549   0.629 -0.6106  0.1162 -1.1239
   94SOL     OW  420   1.384   2.024   2.742  0.4590  0.2052 -0.6196
   94SOL    HW1  421   1.320   2.043   2.810  1.7651 -1.2254  1.0897
   94SOL    HW2  422   1.449   2.093   2.750  0.7337 -0.0960 -0.2626
   95SOL     OW  423   1.017   2.024   0.643  0.2250  0.3436  0.2110
   95SOL    HW1  424   1.099   2.062   0.611  0.7840 -0.8720  0.1482
   95SOL    HW2  425   0.992   1.960   0.576  0.6095 -1.1423  1.4241
   96SOL     OW  426   1.648   0.966   3.632  0.2813  0.7790 -0.0479
   96SOL    HW1  427   1.605   0.892   3.675  2.4145 -0.9948 -0.7484
   96SOL    HW2  428   1.645   0.944   3.539  1.3648  1.3137 -0.2266
   97SOL     OW  429   0.699   2.377   2.292 -0.0227  0.3576  0.0984
   97SOL    HW1  430   0.630   2.352   2.353 -1.3116  0.7995 -1.1124
   97SOL    HW2  431   0.704   2.304   2.230  0.9283  0.1316  0.4150
   98SOL     OW  432   3.219   2.777   1.376  0.7542 -0.4578  0.2450
   98SOL    HW1  433   3.233   2.813   1.463  0.8035 -0.9798  0.4600
   98SOL    HW2  434   3.209   2.853   1.319  1.4384 -0.1003  0.5906
   99SOL     OW  435   0.335   0.563   2.221  0.0278  0.0401 -0.2161
   99SOL    HW1  436   0.362   0.471   2.229 -0.3677 -0.2613 -2.0485
   99SOL    HW2  437   0.415   0.609   2.197  0.2500  0.2150  0.8115
  100SOL     OW  438   1.131   1.188   2.882 -0.2540 -0.4151  0.5975
  100SOL    HW1  439   1.099   1.119   2.824  1.0768 -0.0369 -0.6569
  100SOL    HW2  440   1.214   1.216   2.842 -0.2381  1.1758  1.6553
  101SOL     OW  441   0.245   1.669   3.193  0.3678 -0.2158 -0.0259
  101SOL    HW1  442   0.287   1.677   3.278  2.3317  0.2331 -0.9842
  101SOL    HW2  443   0.169   1.613   3.209  0.3403  0.3375  2.1060
  102SOL     OW  444   1.193   0.392   0.514  0.0131  0.3957 -0.1053
  102SOL    HW1  445   1.183   0.339   0.435 -1.9676  2.5242 -1.4121
  102SOL    HW2  446   1.281   0.372   0.545  1.5122  0.5362 -3.7561
  103SOL     OW  447   0.346   0.596   3.283  0.6456 -0.1508 -0.3172
  103SOL    HW1  448   0.343   0.635   3.196 -0.8129 -1.0993 -0.7264
  103SOL    HW2  449   0.359   0.670   3.342  0.7136  0.6096 -1.2591
  104SOL     OW  450   2.245   1.834   0.919  0.7690 -0.1809 -0.8273
  104SOL    HW1  451   2.255   1.771   0.991  1.7526  1.7020  0.8009
  104SOL    HW2  452   2.165   1.882   0.940  1.4930  0.9268 -0.4818
  105SOL     OW  453   2.622   2.762   0.148 -0.5137  0.1254  0.6291
  105SOL    HW1  454   2.619   2.851   0.184 -0.0027  0.3049  0.2447
  105SOL    HW2  455   2.684   2.768   0.075  0.0220 -0.6932  0.9981
  106SOL     OW  456   1.689   2.105   0.222 -0.5735 -0.2584 -0.4314
  106SOL    HW1  457   1.771   2.144   0.250 -0.1089 -1.5766  0.1058
  106SOL    HW2  458   1.625   2.176   0.227  0.5846  0.8566 -1.1464
  107SOL     OW  459   1.905   0.273   1.999 -0.8286  0.1868  0.0129
  107SOL    HW1  460   1.914   0.367   2.012 -1.9897  0.4948 -1.2395
  107SOL    HW2  461   1.841   0.264   1.928  0.7303 -1.4785 -1.2979
  108SOL     OW  462   1.580   2.827   0.186 -0.4110  0.3462  0.5376
  108SOL    HW1  463   1.602   2.750   0.238  1.0129 -0.6608 -1.4220
  108SOL    HW2  464   1.616   2.901   0.235  1.4901 -0.6373  0.7244
  109SOL     OW  465   1.433   2.731   1.995 -0.4707 -0.3456  0.0141
  109SOL    HW1  466   1.480   2.680   1.928  0.5023 -0.5241  0.8095
  109SOL    HW2  467   1.429   2.673   2.071 -1.5825 -0.1475  0.1204
  110SOL     OW  468   3.273   3.255   3.516 -0.1659  0.0024  0.6596
  110SOL    HW1  469   3.340   3.225   3.577  3.3046  5.5729  0.3207
  110SOL    HW2  470   3.215   3.309   3.569 -0.6496  0.2021 -0.0611
  111SOL     OW  471   1.125   3.054   1.950 -0.0012 -0.5531  0.3843
  111SOL    HW1  472   1.036   3.089   1.947  0.2983  0.6285  2.8469
  111SOL    HW2  473   1.114   2.962   1.974 -0.5647 -0.5374  0.1890
  112SOL     OW  474   3.212   2.221   0.961 -0.4591  0.3460 -0.1946
  112SOL    HW1  475   3.222   2.197   1.054 -1.4416  1.1099  0.1284
  112SOL    HW2  476   3.183   2.139   0.920 -1.2157  0.2907  0.4099
  113SOL     OW  477   3.396   1.229   0.181 -0.3498 -0.1470  0.9354
  113SOL    HW1  478   3.462   1.295   0.201  0.9138 -1.2560  0.5874
  113SOL    HW2  479   3.443   1.145   0.188 -1.5443 -0.9333 -0.0310
  114SOL     OW  480   1.721   3.614   0.675  0.5070  0.8040  0.0923
  114SOL    HW1  481   1.694   3.649   0.760 -2.6682 -1.1710  0.0984
  114SOL    HW2  482   1.759   3.529   0.695  0.0523  0.4743 -0.4115
  115SOL     OW  483   3.270   3.438   2.827  0.0725  0.2087 -0.5457
  115SOL    HW1  484   3.210   3.442   2.753 -0.9900  0.9042  0.3208
  115SOL    HW2  485   3.265   3.347   2.857  1.4125 -0.3856 -2.0210
  116SOL     OW  486   3.540   0.230   3.239 -0.2883  0.0453  0.1096
  116SOL    HW1  487   3.481   0.271   3.175 -0.5320  1.2061  1.0268
  116SOL    HW2  488   3.511   0.139   3.243 -1.4481  0.3792 -0.1207
  117SOL     OW  489   3.567   1.283   1.736  0.5009  0.0929  0.1970
  117SOL    HW1  490   3.515   1.217   1.689  1.3179 -0.8435  0.5605
  117SOL    HW2  491   3.506   1.355   1.751 -0.1359 -0.1364 -1.1302
  118SOL     OW  492   2.039   2.988   1.873 -0.0876 -0.2323  0.2388
  118SOL    HW1  493   1.985   3.056   1.833 -0.9282 -1.0734 -0.0837
  118SOL    HW2  494   2.062   2.930   1.801  0.4579 -0.4017  0.5436
  119SOL     OW  495   0.340   1.248   0.427  0.5216 -0.0362 -0.1979
  119SOL    HW1  496   0.309   1.263   0.516  1.5554 -1.3365  0.4106
  119SOL    HW2  497   0.351   1.153   0.421 -1.2100 -0.1697 -2.2958
  120SOL     OW  498   1.250   1.370   3.198  0.6949  0.4252  0.5966
  120SOL    HW1  499   1.194   1.292   3.195  0.4937  0.5779 -2.3932
  120SOL    HW2  500   1.210   1.426   3.264 -0.2044 -1.2232  1.5168
  121SOL     OW  501   1.016   3.543   1.172  0.2429 -0.2167 -0.2745
  121SOL    HW1  502   1.034   3.512   1.083  1.6710  0.7623 -0.3648
  121SOL    HW2  503   1.029   3.638   1.166 -0.0827 -0.0935  0.8888
  122SOL     OW  504   1.944   1.003   1.902 -0.1153 -0.0937  0.0846
  122SOL    HW1  505   1.956   0.912   1.876  2.1455 -0.2306  1.3591
  122SOL    HW2  506   1.892   0.998   1.983 -1.5482 -0.0772 -0.7921
  123SOL     OW  507   2.091   3.390   0.886  0.1910  0.0319 -0.1831
  123SOL    HW1  508   2.138   3.473   0.880 -0.0947  0.2023 -0.1090
  123SOL    HW2  509   2.041   3.384   0.804  0.0623  0.0274 -0.1057
  124SOL     OW  510   3.336   2.215   1.977  0.8373 -0.3935  0.1810
  124SOL    HW1  511   3.393   2.180   2.045  0.9882 -1.1734 -0.3314
  124SOL    HW2  512   3.259   2.247   2.023  0.6218 -1.5566  0.6598
  125SOL     OW  513   3.624   1.000   0.827  0.3014 -0.1472  0.1687
  125SOL    HW1  514   3.568   1.036   0.758 -1.6946 -0.8536  1.3474
  125SOL    HW2  515   3.711   1.036   0.808 -0.0776 -0.5302 -2.8640
  126SOL     OW  516   1.146   2.724   2.464 -0.4453  0.0016 -0.0511
  126SOL    HW1  517   1.189   2.717   2.549 -0.2418 -0.4770 -0.1953
  126SOL    HW2  518   1.175   2.809   2.430 -0.5761  0.2246  0.3765
  127SOL     OW  519   2.468   0.452   0.027 -0.3591  0.3411  0.0967
  127SOL    HW1  520   2.510   0.450   0.113 -0.1360 -0.4822 -0.0220
  127SOL    HW2  521   2.391   0.396   0.036 -0.0162 -0.2314 -0.3876
  128SOL     OW  522   2.470   1.950   1.015  0.0785 -0.1405  0.7141
  128SOL    HW1  523   2.455   2.043   1.000  1.9456 -0.0409 -0.9628
  128SOL    HW2  524   2.392   1.907   0.979  0.5124  0.6475 -1.2842
  129SOL     OW  525   2.907   3.734   3.433  0.4601  0.7146  0.4613
  129SOL    HW1  526   2.946   3.649   3.451  1.8279  1.3686  0.7540
  129SOL    HW2  527   2.837   3.743   3.498 -2.4442 -1.8035 -2.0092
  130SOL     OW  528   2.114   1.470   1.575  0.2009  0.0956  0.1615
  130SOL    HW1  529   2.158   1.541   1.622  0.5941 -0.9009  1.3593
  130SOL    HW2  530   2.060   1.427   1.641  0.8144 -1.3968 -0.2533
  131SOL     OW  531   1.367   2.543   0.955 -0.3170 -0.3341  0.4931
  131SOL    HW1  532   1.301   2.484   0.919  0.2596 -0.2908 -0.7271
  131SOL    HW2  533   1.378   2.516   1.046 -1.9528 -0.3698  0.6985
  132SOL     OW  534   1.987   2.955   1.138  0.0659 -0.4936 -0.3108
  132SOL    HW1  535   1.990   2.860   1.130 -3.7705 -0.6769 -2.0769
  132SOL    HW2  536   1.945   2.971   1.222 -1.2950 -0.5550 -0.9394
  133SOL     OW  537   0.630   1.396   0.312 -0.0675 -0.8606 -0.1205
  133SOL    HW1  538   0.563   1.333   0.287 -0.7541  0.0312 -0.5782
  133SOL    HW2  539   0.665   1.428   0.229  0.3894 -0.7613  0.1090
  134SOL     OW  540   0.031   0.573   3.204  0.0851 -0.4839 -0.2145
  134SOL    HW1  541  -0.001   0.663   3.204  2.2058  0.3177 -1.4035
  134SOL    HW2  542   0.125   0.580   3.218  0.3816 -2.4841 -0.8508
  135SOL     OW  543   3.551   3.167   3.429  0.7681 -0.1849 -0.5900
  135SOL    HW1  544   3.599   3.216   3.362  1.3977  0.1308  0.0758
  135SOL    HW2  545   3.471   3.218   3.443  1.4462  0.7195  0.1421
  136SOL     OW  546   1.191   1.985   2.538 -0.8180 -0.2678 -0.0186
  136SOL    HW1  547   1.256   1.917   2.555  2.2507  2.3916 -0.1098
  136SOL    HW2  548   1.219   2.059   2.591 -2.8151  1.6338 -1.4289
  137SOL     OW  549   2.929   1.013   1.751  0.3589 -0.3299 -0.1740
  137SOL    HW1  550   2.926   0.923   1.783 -1.3139 -0.1785  0.1507
  137SOL    HW2  551   3.013   1.018   1.704  0.8300 -1.8188  0.4351
  138SOL     OW  552   2.376   2.796   1.805  0.5343 -0.4364 -0.0698
  138SOL    HW1  553   2.392   2.886   1.834 -0.5820 -0.8992  2.1919
  138SOL    HW2  554   2.292   2.800   1.760  2.0003  0.1721 -3.0286
  139SOL     OW  555   1.328   1.708   1.641 -0.4195  0.1097  0.4924
  139SOL    HW1  556   1.402   1.757   1.676 -0.8742  0.4707  0.9631
  139SOL    HW2  557   1.368   1.629   1.604  0.2199  0.3920  0.5566
  140SOL     OW  558   0.952   3.353   0.010  0.0921 -0.2653 -0.4984
  140SOL    HW1  559   0.908   3.270   0.030 -2.0927  0.8357 -0.5607
  140SOL    HW2  560   0.924   3.413   0.078  0.0930  0.9661 -1.5486
  141SOL     OW  561   1.122   1.779   2.859 -0.0164 -0.2145 -0.0409
  141SOL    HW1  562   1.167   1.827   2.930  0.1187  0.4005 -0.5324
  141SOL    HW2  563   1.033   1.813   2.860 -0.3243 -0.9929  0.5300
  142SOL     OW  564   0.949   1.242   3.082  0.0653 -0.1087  0.9961
  142SOL    HW1  565   0.936   1.335   3.104 -2.2836 -0.0167 -0.4364
  142SOL    HW2  566   1.013   1.243   3.012 -0.4278  0.5179  0.5418
  143SOL     OW  567   0.250   0.761   3.704 -0.1890  0.1006 -0.0576
  143SOL    HW1  568   0.188   0.822   3.745  1.3296  1.1786  0.7697
  143SOL    HW2  569   0.333   0.810   3.702  0.9211 -1.6877 -0.0272
  144SOL     OW  570   0.529   3.568   0.489  0.3307  0.1234  0.3973
  144SOL    HW1  571   0.506   3.601   0.576 -1.0717  0.6816 -0.1558
  144SOL    HW2  572   0.459   3.599   0.432  1.3680  0.0032 -0.9995
  145SOL     OW  573   0.969   1.002   0.550 -0.3095  0.3428  0.3485
  145SOL    HW1  574   1.016   0.945   0.489 -0.0098  1.4074 -0.4389
  145SOL    HW2  575   1.006   1.089   0.535  0.3056  0.5330  2.5764
  146SOL     OW  576   0.387   0.168   1.142 -0.6350 -0.1155 -0.5056
  146SOL    HW1  577   0.392   0.204   1.053 -0.9299 -0.2450 -0.5765
  146SOL    HW2  578   0.295   0.175   1.166 -0.6120 -0.3777 -0.3325
  147SOL     OW  579   2.047   3.529   1.923  0.4128 -0.3806 -0.0190
  147SOL    HW1  580   2.047   3.625   1.917  0.0783 -0.3252  0.6773
  147SOL    HW2  581   1.966   3.503   1.879  1.1320 -0.4389 -1.3299
  148SOL     OW  582   2.458   1.027   1.479  0.1009 -0.3380 -0.2040
  148SOL    HW1  583   2.385   1.072   1.522  0.6503 -0.7303  1.1821
  148SOL    HW2  584   2.442   0.934   1.496 -0.1224 -0.5689 -1.6036
  149SOL     OW  585   1.153   2.853   0.120  0.7016  0.0606 -0.1173
  149SOL    HW1  586   1.210   2.878   0.193  1.1196  1.1489 -0.7964
  149SOL    HW2  587   1.211   2.807   0.059  0.6552  0.3278 -0.3666
  150SOL     OW  588   2.683   0.460   3.357  0.4404 -0.0036  0.4207
  150SOL    HW1  589   2.639   0.538   3.323 -0.9892 -1.6118 -1.7009
  150SOL    HW2  590   2.615   0.414   3.407  0.8215 -0.6118  0.3903
  151SOL     OW  591   1.533   1.585   3.460 -0.5349  0.4407 -0.1412
  151SOL    HW1  592   1.625   1.595   3.486 -0.1361  1.5248 -1.7966
  151SOL    HW2  593   1.487   1.657   3.502 -0.8539 -0.6530  1.4733
  152SOL     OW  594   3.235   2.766   0.319  0.3171  0.2222  0.3415
  152SOL    HW1  595   3.261   2.857   0.304  1.0346 -0.0654 -0.2255
  152SOL    HW2  596   3.306   2.731   0.373 -0.8051  0.4551  2.0536
  153SOL     OW  597   3.585   3.637   0.020  0.3545  0.1378  0.1940
  153SOL    HW1  598   3.518   3.574   0.048  1.3291 -0.4898  1.2026
  153SOL    HW2  599   3.542   3.722   0.029 -0.9313 -0.3478 -1.0336
  154SOL     OW  600   0.699   3.470   1.306 -0.6985  0.1537 -0.5850
  154SOL    HW1  601   0.794   3.463   1.314 -0.7326  0.5973  0.2779
  154SOL    HW2  602   0.683   3.475   1.212  0.0536 -0.9891 -0.7867
  155SOL     OW  603   0.528   2.111   0.422 -0.2522 -0.0183  0.0205
  155SOL    HW1  604   0.459   2.067   0.472  1.7740 -0.5019  2.6854
  155SOL    HW2  605   0.582   2.154   0.489  0.9960  1.8900 -2.0741
  156SOL     OW  606   1.474   1.361   0.052  0.5879  0.5814  0.2357
  156SOL    HW1  607   1.501   1.399   0.136  0.6099 -0.2374  0.6077
  156SOL    HW2  608   1.484   1.267   0.064 -2.2486  0.1990  0.3701
  157SOL     OW  609   1.104   0.689   3.117 -0.4108  0.4067 -0.0995
  157SOL    HW1  610   1.079   0.768   3.068  1.7851  0.7122 -0.8490
  157SOL    HW2  611   1.091   0.617   3.055 -2.4025  0.1096  0.5806
  158SOL     OW  612   2.599   2.971   3.078  0.0156  0.0016  0.5199
  158SOL    HW1  613   2.582   2.883   3.045  1.0217 -0.5561  1.4256
  158SOL    HW2  614   2.526   2.989   3.137 -0.4498 -0.0151 -0.0412
  159SOL     OW  615   1.045   0.244   2.908 -0.2554  0.3830 -0.7427
  159SOL    HW1  616   0.981   0.291   2.961 -0.6192 -1.8616  0.9434
  159SOL    HW2  617   0.992   0.199   2.841 -0.4181 -0.8578  0.1824
  160SOL     OW  618   0.639   1.218   3.230 -0.0039  0.0877 -0.7354
  160SOL    HW1  619   0.636   1.132   3.188  0.1799  0.0739 -0.7206
  160SOL    HW2  620   0.578   1.212   3.303 -0.8349  0.3205 -1.3899
  161SOL     OW  621   1.605   3.005   2.982  0.4633  0.5535 -0.0064
  161SOL    HW1  622   1.600   2.976   2.891 -1.6146 -0.1930  0.2881
  161SOL    HW2  623   1.543   3.078   2.987  0.5899  0.6129  0.8071
  162SOL     OW  624   2.536   1.062   2.306 -0.2362 -1.0623  0.7191
  162SOL    HW1  625   2.443   1.085   2.310 -0.0933 -0.6074  1.6476
  162SOL    HW2  626   2.538   0.967   2.315 -0.5406 -0.9525  2.0223
  163SOL     OW  627   2.095   0.396   1.786 -0.2906  0.1027 -0.0111
  163SOL    HW1  628   2.007   0.423   1.759  0.3561  0.6698 -1.6347
  163SOL    HW2  629   2.115   0.320   1.732  0.7388  0.8155 -0.6736
  164SOL     OW  630   3.135   2.364   0.444 -0.1332 -0.1298 -0.3279
  164SOL    HW1  631   3.048   2.327   0.433 -0.2957  0.4640 -1.0957
  164SOL    HW2  632   3.150   2.361   0.539 -0.4896 -1.3242 -0.2860
  165SOL     OW  633   3.653   0.317   1.420 -0.4188  0.3595 -0.4102
  165SOL    HW1  634   3.561   0.330   1.396 -0.2716 -0.2885 -1.4040
  165SOL    HW2  635   3.654   0.233   1.466 -0.5636  1.1795  1.1513
  166SOL     OW  636   3.095   2.889   0.782  0.2064  0.0717  1.0939
  166SOL    HW1  637   3.176   2.925   0.747  0.9700 -3.5810 -1.4568
  166SOL    HW2  638   3.123   2.821   0.842 -0.8589 -1.5152 -0.1167
  167SOL     OW  639   0.851   0.880   3.322  0.4270  0.5041 -0.2344
  167SOL    HW1  640   0.766   0.853   3.287 -0.3347  2.7222 -0.2316
  167SOL    HW2  641   0.899   0.913   3.247  0.7563  0.5463 -0.0068
  168SOL     OW  642   1.835   0.802   1.607 -0.3955 -0.0214  0.1970
  168SOL    HW1  643   1.762   0.796   1.546 -0.4999 -0.2055  0.3374
  168SOL    HW2  644   1.862   0.894   1.605  0.6551 -0.3265 -1.3612
  169SOL     OW  645   2.674   2.090   2.624  0.3476 -0.2402 -0.4658
  169SOL    HW1  646   2.688   2.064   2.533 -1.6969  1.8913 -1.4960
  169SOL    HW2  647   2.751   2.144   2.646  1.8148 -2.3189 -0.1800
  170SOL     OW  648   0.098   0.014   2.789 -0.0053  0.2810  0.2107
  170SOL    HW1  649   0.034   0.002   2.719  1.1306  1.1135 -1.0165
  170SOL    HW2  650   0.115   0.108   2.790 -0.5283  0.3901  2.1250
  171SOL     OW  651   2.628   2.546   1.737  0.2105  0.0544 -0.3646
  171SOL    HW1  652   2.712   2.538   1.781  0.4953 -2.9221 -1.2154
  171SOL    HW2  653   2.634   2.628   1.688  1.8020  0.8965  1.1237
  172SOL     OW  654   1.925   0.549   2.087  0.1468 -0.7225 -0.2092
  172SOL    HW1  655   1.969   0.592   2.160 -0.5068  0.6655 -0.5881
  172SOL    HW2  656   1.903   0.621   2.027 -3.3277 -1.1591  0.3266
  173SOL     OW  657   2.306   2.368   1.323  0.2355 -0.1049 -0.2886
  173SOL    HW1  658   2.391   2.387   1.364  0.1554  0.5034 -0.4060
  173SOL    HW2  659   2.242   2.407   1.383  0.1533  1.6423 -1.4499
  174SOL     OW  660   0.777   2.269   2.623  0.8441  0.3697 -0.2299
  174SOL    HW1  661   0.847   2.253   2.560 -0.4005 -0.6217 -1.4372
  174SOL    HW2  662   0.713   2.322   2.575  0.8674  1.5096  0.9354
  175SOL     OW  663   3.568   3.083   2.866  0.1831 -0.3002 -0.6895
  175SOL    HW1  664   3.579   3.162   2.813  1.9959 -1.2079 -1.7624
  175SOL    HW2  665   3.599   3.012   2.810  1.9507 -1.3565  1.4696
  176SOL     OW  666   1.038   0.485   1.781 -0.1579  0.4328 -0.3708
  176SOL    HW1  667   1.065   0.575   1.767  1.4346 -0.1002 -0.9123
  176SOL    HW2  668   1.110   0.445   1.829 -0.8397 -0.5556 -0.1299
  177SOL     OW  669   2.669   1.724   1.620  0.1082  0.3404  0.2345
  177SOL    HW1  670   2.589   1.698   1.575  0.3336  0.7504 -0.4283
  177SOL    HW2  671   2.700   1.801   1.571 -0.0147  1.2443  1.5290
  178SOL     OW  672   0.627   2.071   2.795 -0.5554  0.1291  0.6716
  178SOL    HW1  673   0.702   2.116   2.755 -0.9873  0.2514 -0.0222
  178SOL    HW2  674   0.622   1.987   2.749 -2.4340  1.1724 -1.2214
  179SOL     OW  675   3.732   2.495   3.620  0.3093 -0.0692  0.4152
  179SOL    HW1  676   3.760   2.553   3.549 -0.9841  2.3426  1.7575
  179SOL    HW2  677   3.639   2.515   3.632  0.1239 -1.5579  1.7734
  180SOL     OW  678   2.686   3.742   1.098 -0.0071  0.1813 -0.2206
  180SOL    HW1  679   2.679   3.748   1.003  0.8251 -2.0989 -0.4835
  180SOL    HW2  680   2.629   3.669   1.122  0.3751  0.2371  0.9390
  181SOL     OW  681   3.249   1.809   0.291 -0.0782 -0.0263 -0.4053
  181SOL    HW1  682   3.304   1.876   0.251 -1.1328 -0.6430 -3.1371
  181SOL    HW2  683   3.166   1.853   0.309  0.0204 -0.0277  0.0581
  182SOL     OW  684   1.116   0.807   2.012  0.3042  0.6157  0.1172
  182SOL    HW1  685   1.143   0.719   1.986  0.3404  1.1284 -1.6737
  182SOL    HW2  686   1.158   0.865   1.949  0.8717  2.0142  1.6878
  183SOL     OW  687   3.634   0.053   1.526  0.2347  0.0994 -0.0013
  183SOL    HW1  688   3.538   0.046   1.522  0.1050  0.3307  1.8652
  183SOL    HW2  689   3.662  -0.031   1.563  1.0461 -1.0992 -3.0603
  184SOL     OW  690   0.454   3.109   1.450 -0.1187 -0.5067 -0.0047
  184SOL    HW1  691   0.371   3.073   1.477 -1.7671  3.3819  0.8399
  184SOL    HW2  692   0.464   3.082   1.358 -2.4057 -0.9130 -0.1711
  185SOL     OW  693   2.196   0.810   1.637 -0.2091 -0.6461  0.0138
  185SOL    HW1  694   2.283   0.778   1.613  0.0080 -0.2539  0.2698
  185SOL    HW2  695   2.209   0.853   1.722 -0.9880 -2.1258  0.9240
  186SOL     OW  696   2.406   3.533   2.844 -0.2890 -0.2737 -0.0164
  186SOL    HW1  697   2.317   3.497   2.842 -0.6324  0.5140 -2.5494
  186SOL    HW2  698   2.462   3.460   2.816  0.0906 -1.0893  2.5767
  187SOL     OW  699   2.587   0.126   0.047 -0.4626  0.1315 -0.3375
  187SOL    HW1  700   2.641   0.196   0.010 -1.6985  0.3992 -1.7259
  187SOL    HW2  701   2.497   0.159   0.039 -0.8749 -0.3166  1.8672
  188SOL     OW  702   3.287   2.059   3.679 -0.5819  0.3868 -0.2413
  188SOL    HW1  703   3.314   2.081   3.589 -1.1521 -1.3427 -0.8784
  188SOL    HW2  704   3.334   2.121   3.734  0.0218  1.2939 -1.7230
  189SOL     OW  705   3.172   2.637   2.998  0.5156  0.3727 -0.0465
  189SOL    HW1  706   3.090   2.666   2.959  0.8947  0.9417 -0.4358
  189SOL    HW2  707   3.221   2.718   3.016  1.5627  0.0018 -1.0975
  190SOL     OW  708   2.117   0.023   2.998 -0.3064  0.5118  0.5276
  190SOL    HW1  709   2.106   0.094   3.062 -1.6445 -0.5145  1.4792
  190SOL    HW2  710   2.210   0.028   2.973 -0.1078  1.8862  1.4077
  191SOL     OW  711  -0.012   1.403   3.047 -0.0164 -0.1240  0.4110
  191SOL    HW1  712   0.063   1.423   2.991  0.2669 -0.5765  0.6192
  191SOL    HW2  713  -0.040   1.488   3.081 -0.0698  0.1346 -0.2564
  192SOL     OW  714   0.903   1.599   0.173 -0.1681 -0.6695 -0.5712
  192SOL    HW1  715   0.939   1.686   0.155  1.2893 -0.7389  1.6636
  192SOL    HW2  716   0.875   1.567   0.087 -1.0558  2.0918 -1.4347
  193SOL     OW  717   2.782   1.967   1.586 -0.7365 -0.2702 -0.7140
  193SOL    HW1  718   2.759   2.022   1.512 -3.4546 -2.1994 -1.4648
  193SOL    HW2  719   2.743   2.011   1.662 -0.4331  0.2732 -0.8754
  194SOL     OW  720   3.530   1.885   2.956  0.3288  0.1122 -0.0349
  194SOL    HW1  721   3.447   1.886   3.003  0.5478 -2.5829  0.5840
  194SOL    HW2  722   3.596   1.888   3.025  0.7153 -0.0023 -0.3952
  195SOL     OW  723   3.582   3.472   2.964 -0.3919  0.1976  0.1365
  195SOL    HW1  724   3.507   3.462   3.022  0.4846  1.1348  1.5071
  195SOL    HW2  725   3.637   3.538   3.007  3.0359 -3.0241  1.1699
  196SOL     OW  726   3.478   3.576   1.754 -0.5721  0.5286  0.2444
  196SOL    HW1  727   3.439   3.526   1.683  0.7210 -0.4874  0.2082
  196SOL    HW2  728   3.571   3.579   1.733 -0.2755  0.8640  1.4924
  197SOL     OW  729   1.968   3.499   1.511 -0.2147  0.4139 -0.0714
  197SOL    HW1  730   1.886   3.460   1.542  1.2278 -1.4731  1.6506
  197SOL    HW2  731   1.973   3.583   1.558 -1.0308  0.4483 -0.0230
  198SOL     OW  732   1.929   2.077   1.634  0.1801 -0.0504  0.3716
  198SOL    HW1  733   1.960   2.013   1.698 -0.4546 -1.4904 -0.6785
  198SOL    HW2  734   1.992   2.149   1.637  0.5800 -0.4443  2.0322
  199SOL     OW  735   3.633   3.279   1.968 -0.0350  0.0840  0.2948
  199SOL    HW1  736   3.661   3.218   2.037 -3.4401 -2.2896 -0.1677
  199SOL    HW2  737   3.675   3.246   1.889  1.0181  0.6481  0.5879
  200SOL     OW  738   0.339   0.181   0.598  0.2342 -0.6165  0.1476
  200SOL    HW1  739   0.274   0.246   0.571  0.5703 -0.9610 -1.6484
  200SOL    HW2  740   0.287   0.105   0.624 -0.1502 -1.1769 -2.0324
  201SOL     OW  741   2.149   2.773   2.565  0.3721 -0.6432 -0.0987
  201SOL    HW1  742   2.161   2.863   2.533 -0.5480 -0.5425 -0.1794
  201SOL    HW2  743   2.177   2.718   2.492 -0.5173 -0.4162 -0.6252
  202SOL     OW  744   2.848   2.820   3.343 -0.6584 -0.1944 -0.6439
  202SOL    HW1  745   2.936   2.829   3.307 -1.1914 -0.3258 -2.0213
  202SOL    HW2  746   2.800   2.895   3.309 -1.6092 -1.1893 -1.5626
  203SOL     OW  747   3.665   3.500   0.841 -0.3597  0.6795  0.2556
  203SOL    HW1  748   3.667   3.474   0.933 -1.5890 -0.4016  0.0048
  203SOL    HW2  749   3.581   3.545   0.831  0.5028  2.3483  0.0210
  204SOL     OW  750   1.572   0.539   0.160  0.1949  0.2599  0.0102
  204SOL    HW1  751   1.549   0.631   0.147 -0.0824  0.0987 -0.7099
  204SOL    HW2  752   1.586   0.530   0.254  2.7396  1.6340 -0.1310
  205SOL     OW  753   1.026   1.036   0.274 -0.6160 -0.0976  0.4377
  205SOL    HW1  754   0.960   1.105   0.277  0.8451  1.4037 -0.0477
  205SOL    HW2  755   1.109   1.084   0.268  0.4402 -1.9216 -0.0232
  206SOL     OW  756   2.681   0.743   1.069  0.0625  0.8718  0.5269
  206SOL    HW1  757   2.697   0.649   1.076  0.8730  1.0509  1.1340
  206SOL    HW2  758   2.605   0.758   1.126 -0.3119  0.5314  0.1256
  207SOL     OW  759   2.882   3.051   0.353  0.3083 -0.0942  0.1936
  207SOL    HW1  760   2.949   2.991   0.386 -0.4332 -0.4728  1.0536
  207SOL    HW2  761   2.821   2.995   0.307 -1.8255 -0.5054  3.2220
  208SOL     OW  762   2.373   2.372   3.015 -0.3282 -0.3523 -1.0157
  208SOL    HW1  763   2.406   2.461   3.005  0.0240 -0.6099 -2.3964
  208SOL    HW2  764   2.318   2.375   3.093 -2.4617  1.7347 -2.4496
  209SOL     OW  765   1.698   2.546   2.655 -0.0747  0.7776 -0.3750
  209SOL    HW1  766   1.652   2.521   2.735  1.6513 -2.0854 -0.1547
  209SOL    HW2  767   1.675   2.639   2.642 -1.4252  0.9852  2.6731
  210SOL     OW  768   1.293   0.126   3.106  0.1338 -0.5646  0.5051
  210SOL    HW1  769   1.215   0.167   3.145  0.5210  0.4050  0.2910
  210SOL    HW2  770   1.261   0.043   3.070 -1.1676  0.5378 -1.0165
  211SOL     OW  771   2.995   0.255   1.190 -0.4906 -0.2266 -0.2100
  211SOL    HW1  772   3.038   0.200   1.254 -2.7631 -0.1376  1.5096
  211SOL    HW2  773   3.055   0.328   1.176  0.8874 -1.2283  0.3342
  212SOL     OW  774   2.592   2.058   1.801 -0.5468 -0.4432 -0.2879
  212SOL    HW1  775   2.502   2.046   1.833 -0.9482  1.1434 -0.7448
  212SOL    HW2  776   2.589   2.141   1.753  0.9239 -0.9057 -1.2230
  213SOL     OW  777   1.302   1.496   0.800  0.2411 -0.0792 -0.0639
  213SOL    HW1  778   1.366   1.561   0.830  0.1458  1.1345 -2.2755
  213SOL    HW2  779   1.260   1.465   0.880  2.6598  0.0500  1.3517
  214SOL     OW  780   0.492   3.140   0.063 -0.2325  0.7153  0.1357
  214SOL    HW1  781   0.465   3.146  -0.028 -1.1268  0.8060  0.3985
  214SOL    HW2  782   0.412   3.155   0.113  0.2350  0.6086  0.9354
  215SOL     OW  783   0.719   3.382   0.455 -0.7637  0.5538 -0.4852
  215SOL    HW1  784   0.697   3.315   0.390 -1.3530  0.8087 -0.5510
  215SOL    HW2  785   0.652   3.450   0.444 -1.4427  0.1644  1.0330
  216SOL     OW  786   2.916   1.360   2.078 -0.0503 -0.1945  0.3521
  216SOL    HW1  787   2.887   1.300   2.009 -3.1605  1.6045 -0.0945
  216SOL    HW2  788   2.889   1.318   2.160  0.7548 -0.8656  0.2835
  217SOL     OW  789   0.502   2.781   3.616 -0.4163 -0.4470  0.3024
  217SOL    HW1  790   0.501   2.867   3.575 -0.8478 -0.5765  0.0371
  217SOL    HW2  791   0.413   2.768   3.649  0.2788  0.2808  2.6333
  218SOL     OW  792   0.108   3.675   3.642 -0.3801 -0.1545  0.5699
  218SOL    HW1  793   0.013   3.680   3.648 -0.4685 -0.1809 -0.6363
  218SOL    HW2  794   0.125   3.596   3.590  0.1989  1.1402 -1.2917
  219SOL     OW  795   0.771   0.295   3.550 -0.1526  0.0853  0.1208
  219SOL    HW1  796   0.722   0.347   3.486 -0.4313  0.0646  0.3164
  219SOL    HW2  797   0.710   0.226   3.577 -0.3063  0.5518  0.9842
  220SOL     OW  798   0.865   1.242   0.252  0.6039 -0.4488  0.2772
  220SOL    HW1  799   0.832   1.322   0.292 -0.2580 -0.7777  0.2497
  220SOL    HW2  800   0.910   1.271   0.173  0.9522  0.0616  0.6504
  221SOL     OW  801   3.132   1.403   1.004  0.3606 -0.2051 -0.6638
  221SOL    HW1  802   3.098   1.314   0.993  0.9020 -0.5607  0.4704
  221SOL    HW2  803   3.066   1.459   0.963 -1.0660 -0.9588  0.5121
  222SOL     OW  804   3.308   1.013   1.951 -0.0911  0.4621  0.0139
  222SOL    HW1  805   3.361   1.019   1.872 -0.6329 -0.7831 -0.4682
  222SOL    HW2  806   3.265   1.098   1.958 -0.2565  0.4934 -1.2016
  223SOL     OW  807   0.147   0.291   2.805 -0.3876  0.3737  0.1257
  223SOL    HW1  808   0.117   0.341   2.881 -0.6849  0.8431 -0.2870
  223SOL    HW2  809   0.187   0.357   2.748  2.5848 -0.3879  1.1690
  224SOL     OW  810   1.621   2.293   3.216 -0.0979 -0.1069 -0.4152
  224SOL    HW1  811   1.588   2.351   3.284 -0.1680 -1.0581  0.3891
  224SOL    HW2  812   1.716   2.297   3.226 -0.0137  1.2810 -1.5809
  225SOL     OW  813   1.650   2.987   0.746 -0.0811 -0.6627 -0.0795
  225SOL    HW1  814   1.575   3.037   0.712 -0.1368 -0.5467  0.2100
  225SOL    HW2  815   1.611   2.924   0.807  0.1538  0.1655  0.9621
  226SOL     OW  816   0.549   0.754   2.946  0.2828 -0.0905 -0.8769
  226SOL    HW1  817   0.458   0.775   2.967 -0.1077 -2.3756  0.0814
  226SOL    HW2  818   0.548   0.659   2.931  2.5272 -0.1856 -0.7607
  227SOL     OW  819   3.106   3.287   0.232 -0.2626 -0.0421 -0.0401
  227SOL    HW1  820   3.065   3.249   0.155 -0.7139  0.6490 -0.1502
  227SOL    HW2  821   3.039   3.344   0.270 -0.5459 -1.4128  1.6604
  228SOL     OW  822   1.499   3.721   1.100  0.3279  0.2134 -0.3442
  228SOL    HW1  823   1.477   3.652   1.163  0.9318 -0.2285 -0.6092
  228SOL    HW2  824   1.420   3.730   1.047  0.2657 -0.3279 -0.3526
  229SOL     OW  825   0.370   0.686   2.454 -0.6420 -0.4587  0.3139
  229SOL    HW1  826   0.325   0.673   2.371  2.0278  0.3403 -1.3969
  229SOL    HW2  827   0.447   0.738   2.431  0.2759 -0.3231  3.2942
  230SOL     OW  828   0.934   3.675   3.674 -0.2423 -0.1503 -0.1447
  230SOL    HW1  829   0.868   3.627   3.625 -0.1984 -0.1605 -0.1937
  230SOL    HW2  830   0.905   3.668   3.765 -2.0808  2.6131 -0.4199
  231SOL     OW  831   2.806   3.165   1.988  0.5265 -0.4338  0.6777
  231SOL    HW1  832   2.858   3.170   1.908 -2.5753 -1.1863 -1.5715
  231SOL    HW2  833   2.825   3.078   2.023  2.3454  0.1182  1.1439
  232SOL     OW  834   1.621   1.101   0.123  0.2683  0.4039 -0.2722
  232SOL    HW1  835   1.708   1.111   0.164  0.8694 -0.3185 -1.3394
  232SOL    HW2  836   1.640   1.070   0.035 -1.0697  0.7707 -0.7027
  233SOL     OW  837   1.440   2.734   3.529  0.3361  0.3310 -0.4672
  233SOL    HW1  838   1.352   2.698   3.516  0.7238 -1.3367  1.2075
  233SOL    HW2  839   1.499   2.663   3.505  1.2078  1.1019 -0.6347
  234SOL     OW  840   0.352   3.502   1.784 -0.0463  0.1081  0.9348
  234SOL    HW1  841   0.389   3.525   1.869 -0.0567  0.7899  0.7609
  234SOL    HW2  842   0.347   3.585   1.737  0.4163 -0.3439  0.0831
  235SOL     OW  843   2.750   1.268   0.798 -0.4134 -0.1018 -0.6984
  235SOL    HW1  844   2.685   1.244   0.864  0.0095  0.9260  0.1251
  235SOL    HW2  845   2.714   1.236   0.716 -2.8363  1.9180 -0.5349
  236SOL     OW  846   1.014   0.420   1.309 -0.5016  0.0082 -0.3791
  236SOL    HW1  847   1.068   0.393   1.383 -0.8991 -2.2543 -0.8449
  236SOL    HW2  848   1.074   0.423   1.235 -0.4887  0.2783 -0.3588
  237SOL     OW  849   0.744   2.062   2.413  0.2432  0.0666 -0.6046
  237SOL    HW1  850   0.787   2.138   2.374  0.8091  0.6848  1.1109
  237SOL    HW2  851   0.787   2.051   2.498 -1.4123 -0.7145  0.1938
  238SOL     OW  852   2.587   0.215   1.771 -0.5720  0.6305  0.2892
  238SOL    HW1  853   2.524   0.270   1.725 -0.5967 -0.7024 -1.4043
  238SOL    HW2  854   2.606   0.144   1.709  3.6821  1.6765  0.1064
  239SOL     OW  855   1.274   0.596   1.912  0.5652  0.4723 -0.6596
  239SOL    HW1  856   1.302   0.651   1.839  0.8937 -0.7873 -1.5116
  239SOL    HW2  857   1.334   0.521   1.910  1.6197  1.1456  1.8998
  240SOL     OW  858   1.562   2.466   1.837  0.3258  0.4387 -0.3272
  240SOL    HW1  859   1.478   2.450   1.795  1.2935 -0.2199 -2.1375
  240SOL    HW2  860   1.627   2.439   1.772  1.9465 -0.7802  1.6475
  241SOL     OW  861   1.222   1.857   3.115 -0.3180 -0.5546 -0.5248
  241SOL    HW1  862   1.280   1.788   3.148  0.8404  0.6085 -0.0037
  241SOL    HW2  863   1.275   1.937   3.123 -1.8541  0.4880 -0.4562
  242SOL     OW  864   2.799   2.018   2.361  0.0776 -0.0020  0.4605
  242SOL    HW1  865   2.870   2.021   2.297  0.7155  1.5515  1.1699
  242SOL    HW2  866   2.823   1.949   2.422  0.2074 -0.4962 -0.1463
  243SOL     OW  867   2.239   0.346   0.830  0.4200 -1.0371 -0.0142
  243SOL    HW1  868   2.232   0.251   0.819  0.1180 -1.4272  2.8216
  243SOL    HW2  869   2.198   0.382   0.751  0.9500 -3.2215 -1.3696
  244SOL     OW  870   1.415   2.975   1.315 -0.1055 -0.0272 -0.1300
  244SOL    HW1  871   1.347   3.016   1.262  1.1534  1.0183 -1.0106
  244SOL    HW2  872   1.432   3.038   1.386  0.6178  0.1953 -0.4881
  245SOL     OW  873   3.294   0.645   2.361 -0.1738  0.4173  0.2856
  245SOL    HW1  874   3.335   0.721   2.403 -0.2816 -0.0381  1.2357
  245SOL    HW2  875   3.361   0.614   2.299 -0.6668  2.1295 -1.2098
  246SOL     OW  876   2.352   2.692   0.065  0.3968 -0.2629 -0.1310
  246SOL    HW1  877   2.274   2.708   0.011  0.5317 -0.2696 -0.3310
  246SOL    HW2  878   2.423   2.732   0.015  0.8500 -1.9835 -0.9470
  247SOL     OW  879   3.434   0.367   2.381  0.2411  0.7072  0.2318
  247SOL    HW1  880   3.389   0.412   2.453  2.0270  2.9429  0.0566
  247SOL    HW2  881   3.467   0.286   2.421 -1.2948  0.4603  1.1110
  248SOL     OW  882   2.396   3.027   3.247  0.4360  0.4995  0.2995
  248SOL    HW1  883   2.408   3.120   3.232 -3.4845  1.1098 -0.1265
  248SOL    HW2  884   2.350   3.022   3.331 -2.1970 -0.6406 -1.0647
  249SOL     OW  885   3.511   0.818   3.416  0.3522 -0.4362  0.3064
  249SOL    HW1  886   3.530   0.847   3.505 -0.3045  0.7285  0.0771
  249SOL    HW2  887   3.521   0.722   3.420  0.7838 -0.3613  1.5064
  250SOL     OW  888   1.681   1.493   0.408 -0.1790  0.4283 -0.3213
  250SOL    HW1  889   1.680   1.497   0.504  0.2260  0.4219 -0.3157
  250SOL    HW2  890   1.774   1.495   0.385 -0.2631  0.0623 -0.7001
  251SOL     OW  891   2.466   3.528   0.358  0.0621 -0.0178  0.2611
  251SOL    HW1  892   2.418   3.513   0.277  0.7203 -0.6029 -0.0380
  251SOL    HW2  893   2.413   3.590   0.408 -0.8822 -0.4850 -0.1525
  252SOL     OW  894   1.855   1.065   1.643 -0.8869  0.2472 -0.3817
  252SOL    HW1  895   1.872   1.070   1.737  0.8638 -0.3935 -0.6167
  252SOL    HW2  896   1.773   1.112   1.630 -2.0711 -1.1245  1.6777
  253SOL     OW  897   0.356   0.911   0.420  0.0557  0.2481  0.0664
  253SOL    HW1  898   0.363   0.816   0.421  1.0951  0.2790 -1.5245
  253SOL    HW2  899   0.281   0.929   0.363  0.7233  0.3907 -0.7861
  254SOL     OW  900   0.823   3.467   2.938 -0.1537 -0.2579 -0.1214
  254SOL    HW1  901   0.860   3.519   3.009  1.3570 -0.0206 -1.0341
  254SOL    HW2  902   0.779   3.394   2.981  0.8998 -0.2302  1.0531
  255SOL     OW  903   2.829   0.469   2.210  0.0720  0.2053 -0.3428
  255SOL    HW1  904   2.910   0.473   2.261  0.3895 -0.1202 -0.8058
  255SOL    HW2  905   2.779   0.397   2.248 -0.6571  1.2984  0.8629
  256SOL     OW  906   1.193   3.611   3.570  0.2006 -0.1754  0.3133
  256SOL    HW1  907   1.128   3.670   3.610 -0.0598 -0.5130  0.3964
  256SOL    HW2  908   1.262   3.603   3.636  1.3859  1.8726 -0.6013
  257SOL     OW  909   1.897   0.939   0.041  0.1545  0.1541  0.1254
  257SOL    HW1  910   1.829   0.916  -0.022  2.1139  0.7967 -2.3687
  257SOL    HW2  911   1.896   1.034   0.043  1.5045  0.2081 -0.6272
  258SOL     OW  912   0.323   1.127   2.953  0.6987 -1.0234  0.2438
  258SOL    HW1  913   0.406   1.121   2.906  1.1796 -1.8167  1.1619
  258SOL    HW2  914   0.332   1.206   3.006 -1.1044  1.8289 -3.2542
  259SOL     OW  915   0.091   0.855   1.625  0.0681 -0.1479  0.3872
  259SOL    HW1  916   0.139   0.783   1.583  2.0779 -0.0234  2.3559
  259SOL    HW2  917  -0.000   0.840   1.599  0.7435 -2.0601 -1.1340
  260SOL     OW  918   1.160   0.516   2.926  0.5750 -0.0010 -0.1825
  260SOL    HW1  919   1.235   0.507   2.866 -0.2159  1.1447 -1.3826
  260SOL    HW2  920   1.088   0.471   2.881  0.1687  0.1694  0.2959
  261SOL     OW  921   2.259   3.115   1.014 -0.1714  1.0242  0.0095
  261SOL    HW1  922   2.171   3.100   0.982 -0.2803 -0.5149  0.9335
  261SOL    HW2  923   2.297   3.177   0.952 -1.6605  1.1765 -0.7890
  262SOL     OW  924   2.346   2.426   0.048  0.2298 -0.9323 -0.0348
  262SOL    HW1  925   2.374   2.516   0.029 -1.0996 -0.7948 -1.5251
  262SOL    HW2  926   2.270   2.436   0.106 -1.5401 -0.9144 -2.2353
  263SOL     OW  927   3.249   3.420   2.435 -0.1956  0.1953 -0.3221
  263SOL    HW1  928   3.207   3.505   2.445 -0.7639 -0.0659 -0.4114
  263SOL    HW2  929   3.217   3.369   2.509  0.9127  0.3524  0.2883
  264SOL     OW  930   3.373   3.045   2.113  0.2431  0.0119  0.0844
  264SOL    HW1  931   3.364   3.131   2.153  0.9423  0.3273 -0.4239
  264SOL    HW2  932   3.360   2.983   2.186 -0.2503  0.5357  0.4502
  265SOL     OW  933   0.301   0.444   1.305  0.2498 -0.1919 -0.4426
  265SOL    HW1  934   0.210   0.472   1.295  0.1813 -0.5523 -0.8595
  265SOL    HW2  935   0.353   0.516   1.268  0.0701 -0.6403 -1.6365
  266SOL     OW  936  -0.008   1.896   3.191 -0.1508  0.2483 -0.1012
  266SOL    HW1  937   0.070   1.906   3.138  0.3642  1.5101  0.8485
  266SOL    HW2  938   0.008   1.950   3.269 -0.7700 -1.6994  1.4671
  267SOL     OW  939   3.111   3.634   0.554  0.1913  0.1754 -0.0958
  267SOL    HW1  940   3.029   3.683   0.558  0.4752  0.6003  1.5188
  267SOL    HW2  941   3.087   3.544   0.577 -0.0461 -0.0549 -1.2021
  268SOL     OW  942   2.125   0.915   1.378 -0.6901  0.5877 -0.0195
  268SOL    HW1  943   2.047   0.861   1.372 -1.6344  1.9924 -0.9909
  268SOL    HW2  944   2.161   0.896   1.465 -3.0652  1.1565  1.1626
  269SOL     OW  945   2.696   0.493   0.978 -0.0491  0.4933 -0.2653
  269SOL    HW1  946   2.733   0.421   0.927  0.7360  1.1360 -0.6131
  269SOL    HW2  947   2.606   0.465   0.996 -0.5397  0.4758 -2.4508
  270SOL     OW  948   1.576   1.281   2.940 -0.1506 -0.4140 -1.0350
  270SOL    HW1  949   1.580   1.196   2.983 -3.1197 -0.8514 -1.4294
  270SOL    HW2  950   1.506   1.328   2.985 -0.1579  0.9153 -2.3390
  271SOL     OW  951   2.737   3.703   0.209  0.1992  0.2242  0.3038
  271SOL    HW1  952   2.682   3.626   0.219 -0.2727  0.7340  1.8729
  271SOL    HW2  953   2.684   3.764   0.157  1.2229 -1.0542 -2.4682
  272SOL     OW  954   0.570   1.848   2.343  0.4452 -0.4352  0.3746
  272SOL    HW1  955   0.549   1.874   2.254 -2.0310  0.9244  1.2532
  272SOL    HW2  956   0.622   1.920   2.378  2.3111 -1.4288 -0.2003
  273SOL     OW  957   2.916   3.625   1.150  0.3682 -0.2048 -0.3093
  273SOL    HW1  958   2.853   3.689   1.117 -0.9609  0.3527  2.9817
  273SOL    HW2  959   2.947   3.580   1.071 -3.2223  0.2827 -2.1950
  274SOL     OW  960   2.743   3.277   2.686  0.0540  0.1079 -0.4612
  274SOL    HW1  961   2.767   3.338   2.756  0.1700 -0.0751 -0.3418
  274SOL    HW2  962   2.685   3.213   2.729  0.9501 -0.6093 -0.2879
  275SOL     OW  963   3.693   2.769   0.947 -0.1544  0.0068  0.0042
  275SOL    HW1  964   3.662   2.756   1.036  0.4449  0.7734  0.3342
  275SOL    HW2  965   3.612   2.778   0.895 -0.5031 -0.5888  0.4318
  276SOL     OW  966   2.097   2.154   2.307  0.0185 -0.2306  0.9646
  276SOL    HW1  967   2.070   2.134   2.217 -0.4637 -0.7338  1.2131
  276SOL    HW2  968   2.192   2.153   2.304  0.0286  1.2557  0.1396
  277SOL     OW  969   3.404   0.309   1.699  0.3255 -0.2447  0.0081
  277SOL    HW1  970   3.380   0.379   1.761  3.5945  1.1762 -0.1187
  277SOL    HW2  971   3.354   0.329   1.620 -1.5066 -0.2206  1.1245
  278SOL     OW  972   3.042   2.854   0.505 -0.1639  0.4902 -0.3485
  278SOL    HW1  973   3.112   2.816   0.452  0.2385  1.4840 -0.5387
  278SOL    HW2  974   3.079   2.859   0.593 -0.2933  0.2699 -0.2782
  279SOL     OW  975   1.849   1.009   2.167 -0.8449 -0.1773 -0.1681
  279SOL    HW1  976   1.908   0.975   2.235  1.3481  0.2861 -1.7204
  279SOL    HW2  977   1.808   1.085   2.207 -0.1851 -0.3493  0.8918
  280SOL     OW  978   2.889   3.639   2.755  0.0501 -0.5319 -0.4542
  280SOL    HW1  979   2.830   3.611   2.825 -1.2514  1.9652 -0.4198
  280SOL    HW2  980   2.970   3.665   2.800 -0.2625 -0.2999 -0.0177
  281SOL     OW  981   0.538   1.930   2.027  0.5318  0.2392 -0.3236
  281SOL    HW1  982   0.607   1.925   1.961 -0.8473  1.2106 -1.9181
  281SOL    HW2  983   0.554   2.012   2.072  0.9418  0.0212 -0.0698
  282SOL     OW  984   1.265   1.043   1.945 -0.3012  0.4199 -0.5318
  282SOL    HW1  985   1.339   1.086   1.988  0.4577 -2.8709  1.8257
  282SOL    HW2  986   1.302   1.010   1.863  0.4539  0.1006 -0.0774
  283SOL     OW  987   2.117   1.121   2.945  0.2858  0.7792 -0.1359
  283SOL    HW1  988   2.154   1.157   2.865 -1.9793 -0.9182 -2.1040
  283SOL    HW2  989   2.060   1.191   2.979  0.7512  1.2710 -0.3644
  284SOL     OW  990   1.696   3.322   0.702  0.3534 -0.2632  0.3584
  284SOL    HW1  991   1.663   3.313   0.612  0.2077 -1.3838  0.5064
  284SOL    HW2  992   1.618   3.347   0.752  0.6762  1.5827  0.0035
  285SOL     OW  993   1.426   2.368   2.526 -0.3782  0.2235 -0.0335
  285SOL    HW1  994   1.513   2.352   2.490 -0.9311  1.8161 -2.2546
  285SOL    HW2  995   1.440   2.431   2.597  0.2818  0.4741 -0.3814
  286SOL     OW  996   3.725   0.921   2.362  0.0648  0.7794  0.0188
  286SOL    HW1  997   3.789   0.928   2.291 -0.4060  0.3204 -0.4575
  286SOL    HW2  998   3.640   0.930   2.319 -0.2488 -0.1083  0.4332
  287SOL     OW  999   2.006   2.395   2.828 -0.5285  0.2584 -0.4054
  287SOL    HW1 1000   2.079   2.449   2.799 -0.6433  0.3003 -0.6189
  287SOL    HW2 1001   1.928   2.441   2.796 -0.6621  0.3694  0.0723
  288SOL     OW 1002   2.589   2.004   2.848  0.0916 -0.0870 -0.0150
  288SOL    HW1 1003   2.637   2.043   2.776  0.3161  0.6450  0.5164
  288SOL    HW2 1004   2.504   2.047   2.847  0.9459  1.8096  1.6704
  289SOL     OW 1005   1.431   0.698   3.450  0.1870 -0.3051 -0.3516
  289SOL    HW1 1006   1.358   0.641   3.472  1.1056 -1.6298 -0.6472
  289SOL    HW2 1007   1.390   0.774   3.409 -0.9311 -2.5443 -3.8229
  290SOL     OW 1008   0.100   3.351   1.304  0.4090  0.3579 -0.0213
  290SOL    HW1 1009   0.178   3.355   1.249 -0.2230 -0.6711 -1.0261
  290SOL    HW2 1010   0.079   3.258   1.309 -0.3197  0.5527  0.8858
  291SOL     OW 1011   2.577   3.734   2.053 -1.0069 -0.7011 -1.0241
  291SOL    HW1 1012   2.629   3.704   1.978 -0.3929  0.8905 -1.2747
  291SOL    HW2 1013   2.568   3.657   2.109  1.3428 -1.1185 -1.1323
  292SOL     OW 1014   0.506   0.354   0.045  0.1171 -0.2220  0.0065
  292SOL    HW1 1015   0.424   0.362  -0.002 -1.7978 -1.5747  2.8531
  292SOL    HW2 1016   0.497   0.412   0.120  1.0096 -1.6456  1.2822
  293SOL     OW 1017   0.862   2.551   0.852 -1.2368 -0.3648  0.2504
  293SOL    HW1 1018   0.913   2.528   0.775  0.3410  0.6284  0.9547
  293SOL    HW2 1019   0.859   2.647   0.852  0.5968 -0.2166  2.4814
  294SOL     OW 1020   2.285   0.605   0.227 -0.4158 -0.1609 -0.3924
  294SOL    HW1 1021   2.216   0.571   0.170  1.2077  1.1371 -3.3537
  294SOL    HW2 1022   2.359   0.546   0.213 -0.1037 -0.0679  0.7697
  295SOL     OW 1023   1.927   0.262   2.622  0.2478  0.0843  0.2675
  295SOL    HW1 1024   1.946   0.303   2.706 -0.1486  1.0491 -0.1071
  295SOL    HW2 1025   1.832   0.250   2.623  0.0259  1.5672 -0.6904
  296SOL     OW 1026   2.123   3.144   2.072 -0.3700  0.0142  0.7679
  296SOL    HW1 1027   2.112   3.100   1.988 -0.7553  0.5069  0.5538
  296SOL    HW2 1028   2.215   3.171   2.073 -0.6670  1.1696 -0.0916
  297SOL     OW 1029   2.252   3.076   1.282 -0.2934  0.0560  0.0247
  297SOL    HW1 1030   2.320   3.142   1.300 -0.2771  0.3179 -0.9650
  297SOL    HW2 1031   2.216   3.101   1.197 -0.0646 -1.4089 -0.5218
  298SOL     OW 1032   2.924   1.662   0.422  0.6705 -0.3349  0.3734
  298SOL    HW1 1033   2.909   1.687   0.331  0.4618 -1.2333  0.1519
  298SOL    HW2 1034   3.015   1.632   0.424  1.3476  1.6116  0.9191
  299SOL     OW 1035   0.742   1.952   1.067 -0.3456 -0.1490 -0.3585
  299SOL    HW1 1036   0.726   2.035   1.021  0.0659  0.6088  0.7923
  299SOL    HW2 1037   0.737   1.976   1.160  0.4295 -1.3017 -0.0016
  300SOL     OW 1038   3.254   1.535   3.678 -0.1957 -0.2031  0.3768
  300SOL    HW1 1039   3.253   1.617   3.728 -0.2305  0.0086  0.0402
  300SOL    HW2 1040   3.346   1.508   3.678 -0.1464 -0.0377  0.2921
  301SOL     OW 1041   2.148   3.586   3.651 -0.1365  0.5313 -0.2162
  301SOL    HW1 1042   2.100   3.650   3.704  0.3604  0.1040  0.7858
  301SOL    HW2 1043   2.082   3.548   3.593 -1.0042  0.0775  1.0066
  302SOL     OW 1044   3.659   2.153   0.766  0.8770  0.5740  0.2295
  302SOL    HW1 1045   3.602   2.087   0.806  1.3211 -0.6690 -1.0816
  302SOL    HW2 1046   3.612   2.180   0.687  1.6476  0.2508 -0.3524
  303SOL     OW 1047   2.845   1.486   1.370  0.2899 -0.5748 -0.4532
  303SOL    HW1 1048   2.772   1.471   1.309 -1.2283 -0.0319  1.1328
  303SOL    HW2 1049   2.853   1.581   1.374  0.1119 -0.5851  0.4439
  304SOL     OW 1050   2.562   1.772   1.217  0.0222  0.0808 -0.2034
  304SOL    HW1 1051   2.520   1.828   1.152 -0.8660 -0.0011  0.2798
  304SOL    HW2 1052   2.533   1.683   1.195 -0.6387  0.0973  0.5447
  305SOL     OW 1053   3.138   0.993   1.571  0.6886 -0.3237 -0.0272
  305SOL    HW1 1054   3.233   1.005   1.577  1.1707 -3.8469  2.0884
  305SOL    HW2 1055   3.121   0.983   1.477  2.4195  0.1635 -0.4340
  306SOL     OW 1056   2.404   1.480   2.569 -0.0139  0.1835 -0.5516
  306SOL    HW1 1057   2.436   1.567   2.595  0.0591  0.4777 -1.5745
  306SOL    HW2 1058   2.308   1.490   2.567 -0.0523 -0.0021  0.1347
  307SOL     OW 1059   1.667   1.798   0.633 -0.2256  0.3823 -0.3309
  307SOL    HW1 1060   1.717   1.717   0.643  1.3516  1.3531 -0.0463
  307SOL    HW2 1061   1.688   1.829   0.545 -1.2809  0.2097 -0.6591
  308SOL     OW 1062   0.118   3.367   2.945 -0.1037 -0.1613  0.0294
  308SOL    HW1 1063   0.023   3.373   2.936 -0.0138  0.1008 -0.8525
  308SOL    HW2 1064   0.137   3.408   3.029 -0.7344  0.1535  0.0248
  309SOL     OW 1065   2.491   1.973   1.483  0.2002  0.0157 -0.5334
  309SOL    HW1 1066   2.569   1.941   1.436  1.1715 -1.2389  1.7714
  309SOL    HW2 1067   2.428   1.901   1.474  0.7544 -0.6711  0.8663
  310SOL     OW 1068   0.251   0.439   3.575  0.5507 -0.2764 -0.1348
  310SOL    HW1 1069   0.181   0.494   3.541 -0.0126 -1.1229 -0.3610
  310SOL    HW2 1070   0.209   0.381   3.638  0.9652 -1.0577 -0.5559
  311SOL     OW 1071   2.512   2.797   3.558 -0.4027  0.4340  0.3387
  311SOL    HW1 1072   2.481   2.746   3.483  1.0053 -0.5003  0.3420
  311SOL    HW2 1073   2.608   2.793   3.551 -0.2507  2.3681  0.8528
  312SOL     OW 1074   1.836   1.139   3.453  0.9460 -0.0550 -0.2724
  312SOL    HW1 1075   1.922   1.176   3.435  1.2405 -0.1240  0.8945
  312SOL    HW2 1076   1.810   1.180   3.536  0.3090 -0.7902 -0.1049
  313SOL     OW 1077   0.059   0.574   2.177 -0.5618  0.0963  0.3723
  313SOL    HW1 1078   0.049   0.503   2.113 -1.5046  0.9902 -0.5217
  313SOL    HW2 1079   0.153   0.577   2.196 -0.4390 -1.0272  0.0243
  314SOL     OW 1080   3.557   3.073   1.438  0.1201  0.2707 -0.1865
  314SOL    HW1 1081   3.465   3.096   1.453 -0.5472 -2.3746  0.2482
  314SOL    HW2 1082   3.581   3.019   1.513  1.3686 -0.8196 -1.3232
  315SOL     OW 1083   0.476   0.094   2.671  0.3065  0.1486  0.1314
  315SOL    HW1 1084   0.487   0.001   2.652 -0.6450 -0.2784  1.5557
  315SOL    HW2 1085   0.408   0.123   2.611 -1.6002 -0.8343  1.7275
  316SOL     OW 1086   0.828   3.638   0.602  0.0063 -0.5050 -0.2166
  316SOL    HW1 1087   0.785   3.722   0.590 -1.2628 -1.0126  0.5591
  316SOL    HW2 1088   0.760   3.573   0.586  0.8754 -1.3905 -0.4617
  317SOL     OW 1089   3.353   1.470   1.814 -0.0349  0.1566  0.1484
  317SOL    HW1 1090   3.275   1.510   1.852 -0.3404  1.0417 -1.3540
  317SOL    HW2 1091   3.349   1.491   1.721  2.1389  0.4910  0.0608
  318SOL     OW 1092   0.921   2.812   2.375 -0.4427 -0.4420 -0.1310
  318SOL    HW1 1093   0.948   2.809   2.283  0.3417  0.7253  0.0417
  318SOL    HW2 1094   1.001   2.796   2.424 -0.0259  2.6234  0.3846
  319SOL     OW 1095   3.155   2.573   3.365 -0.1480 -0.4353  0.2532
  319SOL    HW1 1096   3.113   2.495   3.328  1.2446 -0.9604 -0.2718
  319SOL    HW2 1097   3.136   2.643   3.302  0.3128 -0.8158 -0.3116
  320SOL     OW 1098   1.944   1.413   2.424 -0.4731 -0.2322  0.3558
  320SOL    HW1 1099   1.925   1.456   2.507 -0.2030  0.2877  0.1541
  320SOL    HW2 1100   2.033   1.442   2.402 -0.9403  0.5243 -0.6502
  321SOL     OW 1101   0.381   0.364   1.752  0.3955 -0.4681  0.3456
  321SOL    HW1 1102   0.301   0.362   1.698  0.4569  1.1090  0.1291
  321SOL    HW2 1103   0.413   0.454   1.743  1.4184 -0.6798  1.5796
  322SOL     OW 1104   3.013   3.266   1.484 -0.0345 -0.1582  0.2850
  322SOL    HW1 1105   3.091   3.309   1.519 -0.6831 -0.4224  2.1453
  322SOL    HW2 1106   3.006   3.299   1.394  0.3565  2.4365  1.1282
  323SOL     OW 1107   2.508   0.793   2.373 -0.4334  0.0580 -0.3826
  323SOL    HW1 1108   2.576   0.762   2.433 -1.1253  0.1416  0.4747
  323SOL    HW2 1109   2.470   0.712   2.337 -0.4962 -0.0212 -0.1441
  324SOL     OW 1110   0.042   1.832   0.987  0.2935  0.0081  0.0915
  324SOL    HW1 1111   0.108   1.810   1.053 -2.4587 -1.3174  2.6425
  324SOL    HW2 1112  -0.006   1.905   1.026 -1.2753 -0.6753 -0.4921
  325SOL     OW 1113   0.872   2.611   1.778  0.1356 -0.0743  0.5827
  325SOL    HW1 1114   0.897   2.544   1.842  2.1843  0.4428  0.4012
  325SOL    HW2 1115   0.950   2.621   1.723 -1.6506 -0.7252 -2.2231
  326SOL     OW 1116   1.235   0.904   0.718  0.3251  0.4918 -0.0868
  326SOL    HW1 1117   1.192   0.899   0.632 -0.2983 -1.6113  0.3066
  326SOL    HW2 1118   1.169   0.943   0.775  0.2337  0.5772 -0.2471
  327SOL     OW 1119   2.074   2.659  -0.004 -0.0060  0.0424  0.3644
  327SOL    HW1 1120   2.086   2.617   0.081  1.7619 -2.6548 -1.0416
  327SOL    HW2 1121   1.989   2.627  -0.035  1.2114 -2.5474 -0.5794
  328SOL     OW 1122   2.505   2.788   0.528  0.0760 -0.4423 -0.2287
  328SOL    HW1 1123   2.489   2.768   0.620 -1.4413 -0.2716 -0.4423
  328SOL    HW2 1124   2.444   2.859   0.507  1.9390  1.1118 -0.7937
  329SOL     OW 1125   0.025   0.334   2.359 -0.2383  0.4046 -0.1250
  329SOL    HW1 1126   0.080   0.276   2.305 -1.3794 -1.4450  0.6005
  329SOL    HW2 1127   0.034   0.420   2.318  1.2850 -0.3200 -1.4498
  330SOL     OW 1128   0.230   3.532   2.605 -0.1732  0.0154  0.1559
  330SOL    HW1 1129   0.308   3.517   2.658  0.7947  1.5964 -0.7594
  330SOL    HW2 1130   0.178   3.594   2.656 -1.7639 -2.2999  1.5811
  331SOL     OW 1131   3.733   0.379   3.029 -0.4256 -0.5146  0.5211
  331SOL    HW1 1132   3.655   0.330   3.055 -1.8182  1.9668  1.3393
  331SOL    HW2 1133   3.742   0.447   3.096  2.1541 -0.3818  0.1376
  332SOL     OW 1134   3.374   3.021   0.700 -0.4273 -0.6906  0.0190
  332SOL    HW1 1135   3.394   3.052   0.612 -2.6470 -0.0321 -0.3321
  332SOL    HW2 1136   3.418   3.083   0.758 -2.0290  1.2213 -0.6830
  333SOL     OW 1137   3.513   2.970   0.322 -0.8019  0.1643  0.1124
  333SOL    HW1 1138   3.451   3.022   0.374 -0.9211  0.5724 -0.4327
  333SOL    HW2 1139   3.468   2.955   0.239 -0.2402  0.3106 -0.2205
  334SOL     OW 1140   2.892   0.143   0.629 -0.0582 -0.0536  0.0278
  334SOL    HW1 1141   2.963   0.162   0.690  0.2413 -1.2316  0.0696
  334SOL    HW2 1142   2.817   0.123   0.685  0.1082 -0.7284  0.0227
  335SOL     OW 1143   0.973   0.128   2.119  0.4088  0.6476 -0.8461
  335SOL    HW1 1144   0.965   0.180   2.199 -0.3719 -2.7777  1.5060
  335SOL    HW2 1145   1.026   0.053   2.144  0.9919 -0.0784 -3.8770
  336SOL     OW 1146   3.620   3.449   0.269  0.0517 -0.0123 -0.5366
  336SOL    HW1 1147   3.533   3.423   0.299 -1.2670  0.1562 -3.8209
  336SOL    HW2 1148   3.676   3.375   0.293 -0.5470  0.5259  3.0071
  337SOL     OW 1149   3.007   0.911   0.266  0.7018  0.0274 -0.9218
  337SOL    HW1 1150   2.972   0.989   0.222  0.3456 -0.1336 -0.9259
  337SOL    HW2 1151   3.101   0.925   0.268  0.6914  0.1806 -1.4602
  338SOL     OW 1152   1.591   3.316   2.792 -0.1499 -0.1195  0.2053
  338SOL    HW1 1153   1.594   3.299   2.886  0.5059  0.7499  0.3584
  338SOL    HW2 1154   1.510   3.274   2.763 -0.6243  0.0276  1.2495
  339SOL     OW 1155   0.464   2.181   0.144  0.4273 -0.8854 -0.1418
  339SOL    HW1 1156   0.466   2.270   0.178 -0.6345 -0.8487 -0.1492
  339SOL    HW2 1157   0.472   2.126   0.222 -0.2496 -0.7892 -0.0008
  340SOL     OW 1158   2.320   1.532   3.527 -0.0729  0.2822  0.2007
  340SOL    HW1 1159   2.333   1.593   3.454 -2.2288 -0.2549 -0.7074
  340SOL    HW2 1160   2.226   1.513   3.525 -0.1092 -0.1044  2.8647
  341SOL     OW 1161   3.687   2.398   0.530 -0.2333 -0.4196 -0.0194
  341SOL    HW1 1162   3.719   2.310   0.509  0.1444 -0.6236  1.3250
  341SOL    HW2 1163   3.745   2.457   0.482 -0.4819 -0.8896 -0.9192
  342SOL     OW 1164   3.047   2.291   3.252 -0.7143  0.1904  0.3363
  342SOL    HW1 1165   3.012   2.204   3.269 -1.0551 -0.1335 -1.8099
  342SOL    HW2 1166   2.996   2.324   3.179  2.8316  0.0150 -2.5065
  343SOL     OW 1167   1.055   2.585   3.023  0.3398  0.0070 -0.1010
  343SOL    HW1 1168   1.130   2.643   3.022  2.4904 -2.5986 -0.3478
  343SOL    HW2 1169   1.049   2.554   3.113 -1.3854  1.2601  0.2587
  344SOL     OW 1170   1.567   0.414   1.552  0.6399  0.6220 -0.2971
  344SOL    HW1 1171   1.478   0.448   1.560  0.4330  0.1024 -0.3736
  344SOL    HW2 1172   1.617   0.487   1.516  0.1921  0.8363 -0.4907
  345SOL     OW 1173   0.884   1.890   3.192  0.4884  0.0317  0.0457
  345SOL    HW1 1174   0.858   1.803   3.162  0.0668  0.0894  0.2468
  345SOL    HW2 1175   0.979   1.882   3.207  0.5212 -0.2796 -0.3156
  346SOL     OW 1176   1.845   0.559   2.653  0.3559 -0.4262 -0.3754
  346SOL    HW1 1177   1.855   0.653   2.663  0.1019 -0.4355 -0.0437
  346SOL    HW2 1178   1.809   0.548   2.565 -1.9369 -0.0533  0.4609
  347SOL     OW 1179   1.633   0.156   0.799  0.4386 -0.4651  0.1710
  347SOL    HW1 1180   1.652   0.159   0.893  1.6154 -1.7111  0.0136
  347SOL    HW2 1181   1.556   0.100   0.792  0.3115 -0.3194  0.4037
  348SOL     OW 1182   2.353   0.122   1.964 -0.5397 -0.1366 -0.0441
  348SOL    HW1 1183   2.448   0.122   1.971 -0.6736  0.3858  2.6241
  348SOL    HW2 1184   2.326   0.036   1.997 -0.9832 -0.7541 -1.8972
  349SOL     OW 1185   0.310   3.364   0.165 -0.5787 -0.6202 -0.2544
  349SOL    HW1 1186   0.240   3.429   0.170  1.2987  1.9675 -3.0980
  349SOL    HW2 1187   0.275   3.295   0.109 -1.4568 -0.2576 -0.1642
  350SOL     OW 1188   1.847   1.224   0.270  0.3494  0.3485  0.4783
  350SOL    HW1 1189   1.824   1.315   0.288  0.2858  0.0069  2.3303
  350SOL    HW2 1190   1.891   1.194   0.349  1.3900 -0.9187 -0.5393
  351SOL     OW 1191   2.294   0.673   3.426 -0.6437 -0.5423  0.1243
  351SOL    HW1 1192   2.330   0.759   3.448 -3.2450  0.5219  0.5929
  351SOL    HW2 1193   2.289   0.626   3.510 -0.6255 -0.5579  0.1166
  352SOL     OW 1194   1.133   2.490   3.266  0.0702 -0.0130 -0.2542
  352SOL    HW1 1195   1.139   2.397   3.247  1.6362  0.2517 -1.1896
  352SOL    HW2 1196   1.184   2.501   3.347 -3.3622 -0.5162  2.2057
  353SOL     OW 1197   2.499   3.393   2.452  0.1711 -0.0317 -0.1395
  353SOL    HW1 1198   2.539   3.420   2.370 -2.1665  0.9502 -1.0533
  353SOL    HW2 1199   2.533   3.455   2.517 -0.6886  1.5083 -1.1006
  354SOL     OW 1200   2.221   2.433   3.223  0.3549 -0.0854  0.2644
  354SOL    HW1 1201   2.268   2.449   3.304  3.1541 -0.6888 -1.1100
  354SOL    HW2 1202   2.226   2.516   3.175 -1.2802  0.2682  0.6417
  355SOL     OW 1203   0.091   3.520   0.604  0.3411  0.0087  0.0827
  355SOL    HW1 1204   0.046   3.524   0.689  0.6183  2.8123  0.1753
  355SOL    HW2 1205   0.091   3.610   0.572 -1.3403 -1.1372 -3.7898
  356SOL     OW 1206   2.932   1.867   2.530 -0.2301  0.0075  0.3870
  356SOL    HW1 1207   2.983   1.828   2.458 -0.3612 -0.5168  0.5703
  356SOL    HW2 1208   2.996   1.880   2.600  0.3928  2.6578 -0.5827
  357SOL     OW 1209   0.633   3.236   1.617 -0.0220 -0.0977  0.0829
  357SOL    HW1 1210   0.586   3.154   1.604 -0.3048 -0.0494  0.7769
  357SOL    HW2 1211   0.606   3.291   1.543  0.1740 -0.6226 -0.3845
  358SOL     OW 1212   0.672   1.421   3.066 -0.6614 -0.1422  0.1926
  358SOL    HW1 1213   0.671   1.357   3.138  0.2660 -0.1862  0.1756
  358SOL    HW2 1214   0.764   1.429   3.042 -0.7056  1.5600  0.4963
  359SOL     OW 1215   0.885   3.152   2.774  0.6035  0.5486 -0.2213
  359SOL    HW1 1216   0.975   3.122   2.780  1.0976  2.0531  0.1359
  359SOL    HW2 1217   0.891   3.247   2.766 -0.9352  0.6400 -0.6417
  360SOL     OW 1218   1.165   1.684   0.644  0.7180 -0.6073 -0.0480
  360SOL    HW1 1219   1.196   1.607   0.691  1.8578 -0.0533  0.1463
  360SOL    HW2 1220   1.242   1.742   0.640 -0.2540  0.7637  0.3252
  361SOL     OW 1221   0.032   0.528   1.305 -0.1041  0.3145 -0.1943
  361SOL    HW1 1222  -0.010   0.603   1.346  0.9715  1.2377 -0.7180
  361SOL    HW2 1223   0.005   0.453   1.358 -2.2265  0.8581 -0.4059
  362SOL     OW 1224   3.266   2.921   2.316 -0.3989  0.1880 -0.4729
  362SOL    HW1 1225   3.292   2.830   2.327 -0.1784 -0.2141 -3.4505
  362SOL    HW2 1226   3.170   2.919   2.318 -0.4136 -0.2527 -1.2174
  363SOL     OW 1227   2.935   2.365   0.149  0.8933  0.4894 -0.0890
  363SOL    HW1 1228   2.931   2.454   0.184 -0.5555 -0.1647  1.5826
  363SOL    HW2 1229   2.937   2.309   0.227  1.1223 -0.9626 -1.1040
  364SOL     OW 1230   3.024   0.563   3.280  0.0373  0.3664 -0.0644
  364SOL    HW1 1231   2.976   0.627   3.228 -3.3585 -1.4559  0.5826
  364SOL    HW2 1232   3.054   0.498   3.216  1.1963  1.1669 -0.3798
  365SOL     OW 1233   2.599   2.510   2.038 -0.0831 -0.7610 -0.8465
  365SOL    HW1 1234   2.626   2.500   1.947 -0.7993  0.4135 -1.2202
  365SOL    HW2 1235   2.528   2.447   2.049  1.3225 -2.3416 -0.4769
  366SOL     OW 1236   0.762   3.253   3.086 -0.2367  0.8844 -0.0762
  366SOL    HW1 1237   0.840   3.243   3.141 -1.3860  1.9512  1.8518
  366SOL    HW2 1238   0.735   3.163   3.066  1.2732  0.5003 -0.5119
  367SOL     OW 1239   2.502   2.755   2.927  0.3022 -0.7834 -0.3859
  367SOL    HW1 1240   2.518   2.693   2.856 -1.3879 -2.4157  0.6015
  367SOL    HW2 1241   2.429   2.809   2.896  0.2174 -0.8412 -0.2864
  368SOL     OW 1242   2.784   1.083   3.468  0.2404  0.2588  0.6193
  368SOL    HW1 1243   2.848   1.036   3.415 -1.2393 -2.2855  0.9659
  368SOL    HW2 1244   2.789   1.173   3.436  3.0539 -0.0814 -0.2113
  369SOL     OW 1245   3.299   2.844   3.059  0.2708  0.2285  0.1128
  369SOL    HW1 1246   3.315   2.851   2.965 -0.7636 -3.5125 -0.5042
  369SOL    HW2 1247   3.376   2.883   3.099  1.8904 -0.2048 -2.3543
  370SOL     OW 1248   1.746   0.007   0.413 -0.5132 -0.0491  0.3053
  370SOL    HW1 1249   1.664   0.052   0.393 -0.4321 -0.5447 -1.2094
  370SOL    HW2 1250   1.724  -0.051   0.487 -1.2447  0.5843  0.5982
  371SOL     OW 1251   3.647   0.790   3.719 -0.5222 -0.0702  0.6664
  371SOL    HW1 1252   3.699   0.713   3.697  1.3840  0.7712  2.0486
  371SOL    HW2 1253   3.571   0.755   3.766 -1.6143 -1.3562 -1.8318
  372SOL     OW 1254   0.871   2.119   0.150 -0.5109  0.3429 -0.0414
  372SOL    HW1 1255   0.815   2.186   0.110 -3.1866 -0.8593  1.4424
  372SOL    HW2 1256   0.817   2.079   0.217  1.4927 -2.3145  0.1744
  373SOL     OW 1257   3.481   2.701   1.589 -0.2753 -0.4154 -0.2038
  373SOL    HW1 1258   3.422   2.706   1.664  1.0063 -1.0672  0.8698
  373SOL    HW2 1259   3.535   2.780   1.595 -0.6670 -0.0766 -0.9010
  374SOL     OW 1260   2.431   0.734   1.553 -0.2015  0.1680  0.1513
  374SOL    HW1 1261   2.450   0.662   1.614  2.0954  1.5755  1.2672
  374SOL    HW2 1262   2.496   0.725   1.484  2.2246  2.7023  1.8407
  375SOL     OW 1263   0.075   0.295   3.730  0.2939  0.0565  0.3980
  375SOL    HW1 1264   0.052   0.244   3.653  0.3710 -0.7838  0.9228
  375SOL    HW2 1265   0.004   0.279   3.792  0.5100  0.2866  0.7084
  376SOL     OW 1266   2.408   2.096   0.729  0.3869  0.5269  0.2725
  376SOL    HW1 1267   2.418   2.011   0.686  2.0700  1.2327 -0.8237
  376SOL    HW2 1268   2.492   2.140   0.716  0.0939  1.7835  2.1489
  377SOL     OW 1269   1.652   2.939   3.462  0.1449  0.4745 -0.0109
  377SOL    HW1 1270   1.672   2.845   3.464  0.4226  0.5246 -0.2877
  377SOL    HW2 1271   1.696   2.970   3.383 -1.5147  0.4863 -0.9810
  378SOL     OW 1272   1.209   1.455   0.105  0.6810 -0.1276  0.5022
  378SOL    HW1 1273   1.208   1.484   0.196  0.3851 -1.6855  1.0307
  378SOL    HW2 1274   1.298   1.421   0.093  0.8256  0.3946  0.1024
  379SOL     OW 1275   3.099   2.210   1.504 -0.6014  0.4529  0.9813
  379SOL    HW1 1276   3.133   2.290   1.545 -0.9274  0.2015  1.7597
  379SOL    HW2 1277   3.177   2.165   1.470 -0.1686  0.0633  2.4144
  380SOL     OW 1278   0.932   0.597   1.078 -0.2421  0.1008  0.1887
  380SOL    HW1 1279   0.942   0.684   1.117  0.6008  0.7273 -1.3276
  380SOL    HW2 1280   0.968   0.537   1.143 -0.9489  0.8476  1.3143
  381SOL     OW 1281   2.950   3.129   1.023 -0.6880  0.3038  0.1798
  381SOL    HW1 1282   3.038   3.100   1.046 -0.0518  2.1545  0.2161
  381SOL    HW2 1283   2.948   3.125   0.927 -0.9537 -0.7633  0.2188
  382SOL     OW 1284   2.178   1.499   0.535 -0.2139 -0.0144  0.0363
  382SOL    HW1 1285   2.210   1.424   0.485  2.0332  0.4734  0.6148
  382SOL    HW2 1286   2.245   1.514   0.601 -1.9549  0.8125  1.7189
  383SOL     OW 1287   3.048   2.078   2.705  0.8940 -0.0207  0.5488
  383SOL    HW1 1288   2.987   2.041   2.769 -0.6165  1.2439 -0.0795
  383SOL    HW2 1289   3.101   2.004   2.676 -1.9965 -1.7984 -0.6620
  384SOL     OW 1290   1.805   3.638   0.156  0.7125 -0.3355  0.0232
  384SOL    HW1 1291   1.780   3.628   0.247 -0.2031 -0.4771 -0.2341
  384SOL    HW2 1292   1.885   3.691   0.158 -1.4088  3.1029  0.7130
  385SOL     OW 1293   0.260   2.095   2.503 -0.0517  0.9511 -0.1675
  385SOL    HW1 1294   0.244   2.073   2.412 -1.1510 -2.5177  0.7415
  385SOL    HW2 1295   0.187   2.152   2.527  0.8642  2.8945 -1.6307
  386SOL     OW 1296   0.357   1.473   3.412  0.3974  0.6660  0.2989
  386SOL    HW1 1297   0.400   1.516   3.339 -1.4422  1.0991 -0.5847
  386SOL    HW2 1298   0.318   1.545   3.463 -1.9984  0.1808 -0.7357
  387SOL     OW 1299   1.443   0.824   2.316  0.2255  0.7001  0.7237
  387SOL    HW1 1300   1.526   0.804   2.359  0.0477 -2.9372 -0.2725
  387SOL    HW2 1301   1.468   0.856   2.229  0.5354  2.6030  1.4747
  388SOL     OW 1302   2.996   3.053   3.249 -0.2553  0.6128  0.5186
  388SOL    HW1 1303   2.924   3.088   3.301 -2.9682 -2.3906 -0.8086
  388SOL    HW2 1304   2.962   3.050   3.159  0.8865 -2.1972  0.0540
  389SOL     OW 1305   2.458   2.674   3.204 -0.0407 -0.9726 -0.2495
  389SOL    HW1 1306   2.412   2.651   3.124 -1.1596  1.3680 -0.3547
  389SOL    HW2 1307   2.551   2.667   3.181 -0.3457 -1.0062 -1.5359
  390SOL     OW 1308   0.832   0.463   2.926  1.0563  0.1967 -0.3136
  390SOL    HW1 1309   0.851   0.550   2.891  0.2206  0.3308 -0.4443
  390SOL    HW2 1310   0.773   0.424   2.862 -0.2763  0.3343  0.7863
  391SOL     OW 1311   2.274   3.579   0.808 -0.0659  0.2302 -0.4096
  391SOL    HW1 1312   2.368   3.588   0.790 -0.0546  0.6551 -0.1428
  391SOL    HW2 1313   2.235   3.660   0.776 -0.1097  0.7928  1.0099
  392SOL     OW 1314   1.196   0.858   3.389 -0.2451  0.0354  0.3426
  392SOL    HW1 1315   1.183   0.798   3.316  0.5996  0.8395 -0.4909
  392SOL    HW2 1316   1.110   0.862   3.432 -1.2931  1.0040 -1.7292
  393SOL     OW 1317   3.199   2.528   0.155 -0.6250 -0.1623 -0.2673
  393SOL    HW1 1318   3.173   2.464   0.222  0.3052 -1.2531 -0.8947
  393SOL    HW2 1319   3.198   2.612   0.200 -1.6416 -0.6430  0.6653
  394SOL     OW 1320   0.725   3.457   1.809 -0.8858 -0.0006  0.5173
  394SOL    HW1 1321   0.721   3.530   1.747  0.7734  1.6806  2.2684
  394SOL    HW2 1322   0.715   3.379   1.754  2.2513  1.2913 -2.2187
  395SOL     OW 1323   0.569   2.949   0.384 -0.4704  0.1713  0.0152
  395SOL    HW1 1324   0.482   2.969   0.348 -0.4564 -0.0149 -0.1226
  395SOL    HW2 1325   0.554   2.875   0.443 -0.4866  0.4498  0.3669
  396SOL     OW 1326   1.752   1.601   0.971  0.7954  0.4691 -0.3818
  396SOL    HW1 1327   1.681   1.564   1.024 -0.3464  5.0940  1.8533
  396SOL    HW2 1328   1.829   1.598   1.028  1.2095 -0.1491 -0.9508
  397SOL     OW 1329   0.076   2.894   0.170 -0.2495  0.0190  0.2514
  397SOL    HW1 1330   0.006   2.913   0.107  1.3236  0.3562 -1.4820
  397SOL    HW2 1331   0.030   2.876   0.252 -2.3297  0.8417 -0.6585
  398SOL     OW 1332   2.470   1.775   2.495  0.4748 -0.4881  0.6420
  398SOL    HW1 1333   2.421   1.776   2.413  0.4414  0.9936  0.6455
  398SOL    HW2 1334   2.561   1.758   2.468  0.4749  0.0568  0.2768
  399SOL     OW 1335   1.875   2.032   3.462  0.5529  0.3168 -0.2392
  399SOL    HW1 1336   1.815   2.039   3.536  0.8246 -0.4638  0.0694
  399SOL    HW2 1337   1.905   1.941   3.464  1.4783  0.5993 -0.5938
  400SOL     OW 1338   2.604   1.706   3.528  0.1648 -0.5539  0.1132
  400SOL    HW1 1339   2.544   1.690   3.455 -0.0037  0.8073 -0.0804
  400SOL    HW2 1340   2.690   1.711   3.488  0.4123 -2.2760  0.3609
  401SOL     OW 1341   3.594   1.888   0.687 -0.0471  0.4816 -0.6035
  401SOL    HW1 1342   3.536   1.885   0.763  0.5149  0.6932 -0.1573
  401SOL    HW2 1343   3.682   1.884   0.724  0.2310  0.5371 -1.2489
  402SOL     OW 1344   1.876   2.684   2.276  0.4168 -0.1683 -0.4124
  402SOL    HW1 1345   1.938   2.615   2.251  2.7370  0.2561  3.3788
  402SOL    HW2 1346   1.921   2.766   2.255  0.3267  0.1537  0.5899
  403SOL     OW 1347   2.102   1.980   3.165 -0.3131  0.1711 -0.3302
  403SOL    HW1 1348   2.043   1.926   3.111 -2.0900  3.0819 -1.5506
  403SOL    HW2 1349   2.095   2.068   3.127  3.5373  1.0655  0.6193
  404SOL     OW 1350   1.219   2.391   0.796  0.2102  0.1965  0.3122
  404SOL    HW1 1351   1.162   2.314   0.801 -0.4936  0.6958  0.1368
  404SOL    HW2 1352   1.161   2.463   0.771  0.8414  0.8047  0.5414
  405SOL     OW 1353   3.578   2.197   0.027 -0.3190  0.7347 -0.4466
  405SOL    HW1 1354   3.585   2.246  -0.054  0.8217  0.8758 -0.2778
  405SOL    HW2 1355   3.654   2.225   0.079  0.9944 -1.9199 -0.7567
  406SOL     OW 1356   1.497   3.178   1.048 -0.0186  0.2160  0.2181
  406SOL    HW1 1357   1.586   3.189   1.015 -0.3055 -0.9375 -1.0104
  406SOL    HW2 1358   1.441   3.202   0.974 -0.7118 -0.2088  0.5968
  407SOL     OW 1359   2.709   1.946   0.412 -0.3322  0.1811 -0.1997
  407SOL    HW1 1360   2.734   1.858   0.385 -0.1645  0.3043 -0.4546
  407SOL    HW2 1361   2.670   1.984   0.333 -1.7930 -0.1767  0.3129
  408SOL     OW 1362   2.983   2.116   3.691  0.3924  0.5578  0.4495
  408SOL    HW1 1363   2.973   2.181   3.761 -0.1573  1.3929 -0.3773
  408SOL    HW2 1364   3.042   2.158   3.629 -2.2408  1.5732 -1.5436
  409SOL     OW 1365   2.578   0.635   3.580  0.3098 -0.3397  0.2993
  409SOL    HW1 1366   2.547   0.558   3.627  1.1786 -1.5207 -0.9842
  409SOL    HW2 1367   2.567   0.707   3.642 -3.5648 -0.8653  0.4406
  410SOL     OW 1368   2.812   1.899   3.648 -0.2465  0.8129 -0.6464
  410SOL    HW1 1369   2.802   1.832   3.580  2.3370  0.4969 -0.8311
  410SOL    HW2 1370   2.895   1.943   3.627 -1.1036  3.0952  0.3315
  411SOL     OW 1371   2.740   0.230   2.921  0.3551 -0.1071  0.0125
  411SOL    HW1 1372   2.775   0.319   2.917  1.1058 -0.4280 -1.5016
  411SOL    HW2 1373   2.697   0.225   3.006  1.7782  1.1576  0.8706
  412SOL     OW 1374   2.205   3.705   1.601  0.3999 -0.5357 -0.1225
  412SOL    HW1 1375   2.256   3.768   1.653  0.5671 -0.2496 -0.6242
  412SOL    HW2 1376   2.115   3.714   1.632  0.0391  1.4381 -1.5798
  413SOL     OW 1377   3.288   2.655   2.687  0.0250 -0.4876 -0.2848
  413SOL    HW1 1378   3.310   2.736   2.733 -1.6524  0.6707 -1.4481
  413SOL    HW2 1379   3.335   2.587   2.736  3.0607  1.3415 -0.4089
  414SOL     OW 1380   2.268   1.646   1.139 -0.2086  0.2886  0.3093
  414SOL    HW1 1381   2.228   1.616   1.221 -0.3626 -2.5370 -0.7209
  414SOL    HW2 1382   2.327   1.575   1.113 -1.7668  0.0496 -3.1115
  415SOL     OW 1383   0.730   2.331   0.043 -0.2835  0.2432 -0.8592
  415SOL    HW1 1384   0.666   2.398   0.067  0.5441  0.2789  1.4538
  415SOL    HW2 1385   0.772   2.367  -0.036 -0.4517  2.0615 -0.1841
  416SOL     OW 1386   3.262   2.979   3.648 -0.6219  0.1072  0.2367
  416SOL    HW1 1387   3.219   2.895   3.630 -2.5233  0.7016  1.7070
  416SOL    HW2 1388   3.246   3.031   3.569 -0.6814 -0.4320 -0.1127
  417SOL     OW 1389   0.461   0.923   2.299 -0.4261 -1.0527  0.4782
  417SOL    HW1 1390   0.402   0.895   2.228 -0.5929  2.2602 -0.8957
  417SOL    HW2 1391   0.410   0.987   2.348  0.9725 -0.4526  1.2040
  418SOL     OW 1392   0.534   2.684   0.529  0.4034  0.4206 -0.2481
  418SOL    HW1 1393   0.516   2.727   0.613 -5.2466  0.6697 -1.1634
  418SOL    HW2 1394   0.466   2.617   0.521  2.0311 -1.0803 -3.7549
  419SOL     OW 1395   0.955   1.834   0.453 -0.0678 -0.0609  0.9037
  419SOL    HW1 1396   1.006   1.765   0.495 -0.5282  0.1581  1.8431
  419SOL    HW2 1397   0.871   1.793   0.433  0.3692 -0.3603 -0.4545
  420SOL     OW 1398   1.769   3.592   2.491  0.2230  0.0150 -0.7112
  420SOL    HW1 1399   1.685   3.591   2.537 -0.8261  0.7628 -2.5188
  420SOL    HW2 1400   1.773   3.679   2.451  1.9330  0.0357 -0.5838
  421SOL     OW 1401   2.594   2.948   2.496 -0.3017 -0.1005  0.0468
  421SOL    HW1 1402   2.683   2.914   2.492  0.7789  2.3319  1.3358
  421SOL    HW2 1403   2.546   2.898   2.430  1.5662 -2.6219  0.4604
  422SOL     OW 1404   2.778   0.049   3.179 -0.1541  0.0808 -0.2197
  422SOL    HW1 1405   2.817  -0.024   3.228 -0.9913 -0.4041 -0.2546
  422SOL    HW2 1406   2.687   0.052   3.210  0.2894  2.2280  1.0811
  423SOL     OW 1407   0.269   2.269   1.265  0.1366  0.6386 -0.2246
  423SOL    HW1 1408   0.319   2.217   1.201  0.4851 -0.0220  0.5526
  423SOL    HW2 1409   0.297   2.359   1.250  0.8086  0.3959 -0.4803
  424SOL     OW 1410   2.018   3.473   0.583  0.0887 -0.2478 -0.2153
  424SOL    HW1 1411   1.991   3.559   0.550 -1.9713 -1.3687 -1.6762
  424SOL    HW2 1412   2.093   3.448   0.528 -0.0482  0.1257 -0.5764
  425SOL     OW 1413   1.505   3.219   3.505 -0.5696 -0.0901 -0.0525
  425SOL    HW1 1414   1.457   3.137   3.515  0.2872 -0.3903  2.2292
  425SOL    HW2 1415   1.538   3.238   3.593  0.8807  1.7112 -0.9221
  426SOL     OW 1416   1.429   0.807   3.750 -0.3073 -0.1477 -0.2817
  426SOL    HW1 1417   1.369   0.882   3.743 -0.3776 -0.1122  0.5854
  426SOL    HW2 1418   1.388   0.739   3.696 -0.0055  0.5721 -1.4605
  427SOL     OW 1419   0.163   2.191   3.198  0.1183  0.0819 -0.8551
  427SOL    HW1 1420   0.253   2.160   3.201 -0.2988 -1.1540 -0.6857
  427SOL    HW2 1421   0.116   2.137   3.262 -0.8142  0.4549 -1.1988
  428SOL     OW 1422   0.037   2.163   2.252  0.3524  0.3006  0.4129
  428SOL    HW1 1423  -0.036   2.219   2.280  0.9213  2.3049 -1.8431
  428SOL    HW2 1424   0.042   2.096   2.320 -1.9101  1.5975  2.0084
  429SOL     OW 1425   2.384   2.561   1.633 -0.3370 -0.0880  0.1399
  429SOL    HW1 1426   2.421   2.641   1.670  0.7410 -0.4424 -0.1417
  429SOL    HW2 1427   2.402   2.493   1.698 -0.8005 -0.2040  0.1512
  430SOL     OW 1428   0.919   1.406   2.297  0.3797 -0.1580  0.4398
  430SOL    HW1 1429   0.846   1.467   2.281  1.0822  0.2273 -1.6164
  430SOL    HW2 1430   0.989   1.462   2.332 -0.2918 -0.5582  2.5920
  431SOL     OW 1431   2.760   1.649   2.887 -0.5178 -0.3858 -0.1795
  431SOL    HW1 1432   2.671   1.648   2.854  0.1281  0.2519 -2.0514
  431SOL    HW2 1433   2.813   1.615   2.814  0.6796 -1.6547  1.2113
  432SOL     OW 1434   0.035   0.616   3.504 -0.3296  0.1249 -0.0924
  432SOL    HW1 1435   0.045   0.684   3.437 -0.5065 -0.1862 -0.4331
  432SOL    HW2 1436   0.014   0.537   3.456 -0.8288 -0.0247  0.3565
  433SOL     OW 1437   0.909   2.267   1.654  0.1532  0.1056  0.5268
  433SOL    HW1 1438   0.815   2.261   1.638  0.3665 -1.4272 -0.3410
  433SOL    HW2 1439   0.943   2.311   1.576  0.0864  1.4600  1.2287
  434SOL     OW 1440   2.594   2.526   1.406  0.0994 -0.4278  0.1180
  434SOL    HW1 1441   2.564   2.605   1.450 -0.4608 -0.5108 -0.1052
  434SOL    HW2 1442   2.663   2.492   1.462 -0.2951 -0.2902  0.6972
  435SOL     OW 1443   0.018   3.577   1.666  0.0747  0.2737  0.3360
  435SOL    HW1 1444   0.037   3.484   1.657 -2.9063 -0.6584  2.3031
  435SOL    HW2 1445   0.101   3.615   1.697  2.1628 -1.0955 -3.0226
  436SOL     OW 1446   3.576   3.722   0.345  0.1550  0.4801 -0.2162
  436SOL    HW1 1447   3.508   3.698   0.407  0.8448 -0.0427  0.3640
  436SOL    HW2 1448   3.582   3.647   0.285  0.9174  0.0510  0.3687
  437SOL     OW 1449   3.251   0.176   1.921  0.3894 -0.1332 -0.1001
  437SOL    HW1 1450   3.336   0.189   1.880 -0.1960  0.3019 -1.2256
  437SOL    HW2 1451   3.191   0.231   1.871 -0.8106 -1.4659 -0.2137
  438SOL     OW 1452   2.578   1.298   1.354 -0.0118  0.1667 -0.3672
  438SOL    HW1 1453   2.491   1.258   1.355  0.3116 -0.5434  0.2410
  438SOL    HW2 1454   2.637   1.228   1.325  0.2784  0.8375 -1.4750
  439SOL     OW 1455   0.069   3.089   1.283  0.3969  0.1632  0.1187
  439SOL    HW1 1456  -0.022   3.064   1.296  0.1185  0.8674 -0.4028
  439SOL    HW2 1457   0.099   3.034   1.211  0.2551  0.2308  0.0080
  440SOL     OW 1458   1.158   0.636   2.248  0.0974 -0.1274  0.8712
  440SOL    HW1 1459   1.130   0.660   2.336  0.0558  1.3922  0.4720
  440SOL    HW2 1460   1.161   0.719   2.200  2.1589 -0.6202  0.0040
  441SOL     OW 1461   0.499   3.535   2.027  0.2995  0.3558  0.1381
  441SOL    HW1 1462   0.489   3.628   2.050  0.8331 -0.0086  2.0608
  441SOL    HW2 1463   0.582   3.530   1.980 -1.3262  1.2994 -3.1009
  442SOL     OW 1464   1.297   0.111   2.806  0.3406  0.1422  0.0048
  442SOL    HW1 1465   1.213   0.154   2.827  0.5802  0.6269 -0.0078
  442SOL    HW2 1466   1.355   0.138   2.878  0.0059 -1.6588  1.0056
  443SOL     OW 1467   2.301   1.841   0.372  0.3915  0.1309 -0.3723
  443SOL    HW1 1468   2.208   1.848   0.395 -0.0643 -0.0352 -2.0549
  443SOL    HW2 1469   2.302   1.797   0.287  2.0877 -0.9276  0.1282
  444SOL     OW 1470   2.906   2.479   3.620 -0.1944 -0.3289  0.5156
  444SOL    HW1 1471   2.886   2.450   3.709  1.9068 -1.4883  0.6550
  444SOL    HW2 1472   2.833   2.446   3.567 -1.3832  0.2439  1.7490
  445SOL     OW 1473   3.236   0.498   1.143  0.3923  0.2889 -0.0209
  445SOL    HW1 1474   3.329   0.523   1.145  0.3839  0.2644  0.6805
  445SOL    HW2 1475   3.195   0.564   1.087  0.2289  2.3509  2.4010
  446SOL     OW 1476   0.384   2.139   0.816  0.7301  0.5797  0.4908
  446SOL    HW1 1477   0.461   2.101   0.859  2.5236 -0.1085 -2.9370
  446SOL    HW2 1478   0.410   2.229   0.796  0.3511  0.5856  0.0083
  447SOL     OW 1479   2.840   0.169   1.864 -0.7175 -0.2952 -0.7502
  447SOL    HW1 1480   2.746   0.184   1.852 -0.5294  1.1225 -0.6591
  447SOL    HW2 1481   2.853   0.175   1.959 -0.4729 -0.0204 -0.7986
  448SOL     OW 1482   0.867   2.564   3.369 -0.5595 -0.4376  0.0889
  448SOL    HW1 1483   0.955   2.578   3.333 -1.3012  0.7035 -1.3891
  448SOL    HW2 1484   0.839   2.651   3.397 -1.1156 -0.8438  0.8065
  449SOL     OW 1485   1.683   2.147   1.683  0.4098 -0.7439 -0.6369
  449SOL    HW1 1486   1.718   2.236   1.681  0.5788 -0.7149  1.3705
  449SOL    HW2 1487   1.761   2.091   1.692  0.1759 -0.8953  0.6482
  450SOL     OW 1488   2.700   3.623   1.852  0.1502  1.0403 -0.3088
  450SOL    HW1 1489   2.775   3.566   1.869 -0.4800  0.2299 -0.2389
  450SOL    HW2 1490   2.726   3.673   1.774  1.0197  1.2250  0.0896
  451SOL     OW 1491   2.357   1.231   1.110 -0.0489 -0.1284  0.2372
  451SOL    HW1 1492   2.295   1.253   1.040 -0.0076  1.2535  0.6140
  451SOL    HW2 1493   2.347   1.136   1.122 -1.1997 -0.1226 -0.5450
  452SOL     OW 1494   1.135   1.485   2.428  0.3067 -0.6022 -0.4583
  452SOL    HW1 1495   1.124   1.533   2.510 -1.2583  0.2938 -1.1397
  452SOL    HW2 1496   1.218   1.518   2.393  0.5518 -0.3385  0.3494
  453SOL     OW 1497   2.326   3.415   3.412  0.2516  0.0724  0.1635
  453SOL    HW1 1498   2.269   3.443   3.483  1.1518  3.6175 -0.3109
  453SOL    HW2 1499   2.282   3.446   3.332  1.4889  0.3775 -0.4238
  454SOL     OW 1500   1.939   1.583   1.161 -0.3798 -0.0816  0.1764
  454SOL    HW1 1501   2.007   1.643   1.133 -0.2163 -0.7461 -0.9211
  454SOL    HW2 1502   1.976   1.496   1.147 -1.5111 -0.4625 -0.6851
  455SOL     OW 1503   2.812   3.428   1.636 -0.4921  0.6356 -0.4308
  455SOL    HW1 1504   2.860   3.345   1.644 -1.8018 -0.1686 -0.5539
  455SOL    HW2 1505   2.872   3.494   1.671  0.1604 -0.5181  0.7211
  456SOL     OW 1506   3.621   2.146   2.019 -0.0178 -0.0660 -0.0528
  456SOL    HW1 1507   3.567   2.069   1.997 -2.0193  0.5699  2.1933
  456SOL    HW2 1508   3.679   2.114   2.087  1.4115 -0.3216 -1.3339
  457SOL     OW 1509   0.756   1.087   3.710 -0.1633  0.3769 -0.0072
  457SOL    HW1 1510   0.719   1.024   3.648  0.8881 -0.7755  0.4962
  457SOL    HW2 1511   0.743   1.172   3.669  0.5379 -0.3484 -1.8190
  458SOL     OW 1512   2.069   0.004   0.152  0.5478  0.3905  0.1060
  458SOL    HW1 1513   2.066   0.066   0.079 -2.3830  0.1477 -0.0692
  458SOL    HW2 1514   2.115   0.052   0.222  0.7156  1.7357 -0.8869
  459SOL     OW 1515   3.537   1.386   2.164 -0.2019  0.0814  0.3653
  459SOL    HW1 1516   3.578   1.401   2.078 -0.9506  1.4285  0.2231
  459SOL    HW2 1517   3.579   1.306   2.196 -1.0892 -1.4758 -2.0016
  460SOL     OW 1518   1.852   3.161   2.194 -1.3960 -0.2454  0.4598
  460SOL    HW1 1519   1.859   3.189   2.285 -1.9517  2.7311 -0.3041
  460SOL    HW2 1520   1.943   3.161   2.162 -1.3185 -0.0493  0.6765
  461SOL     OW 1521   1.631   3.388   2.213 -0.5072  0.2287  0.0145
  461SOL    HW1 1522   1.563   3.387   2.280 -0.9703 -2.4924 -0.3957
  461SOL    HW2 1523   1.712   3.371   2.262 -0.6780 -0.4812  0.0661
  462SOL     OW 1524   3.220   0.229   0.823 -0.1421  0.1073 -0.0368
  462SOL    HW1 1525   3.295   0.241   0.880  1.1308  1.1160 -1.8025
  462SOL    HW2 1526   3.253   0.176   0.750 -1.2123  0.3037 -0.6981
  463SOL     OW 1527   2.863   3.253   0.571 -0.1677 -0.0178 -0.2640
  463SOL    HW1 1528   2.877   3.194   0.646 -1.2667 -0.4030 -0.3427
  463SOL    HW2 1529   2.867   3.196   0.495 -1.2617 -0.0018 -0.3386
  464SOL     OW 1530   2.666   2.999   1.749 -0.1237 -0.3880 -0.4174
  464SOL    HW1 1531   2.646   2.916   1.706 -0.1716 -0.3557 -0.4584
  464SOL    HW2 1532   2.600   3.007   1.818  0.7476 -1.0661  0.5227
  465SOL     OW 1533   0.364   0.637   0.472  0.3680  0.3415 -0.1305
  465SOL    HW1 1534   0.379   0.582   0.396 -0.9594 -0.7632  0.3754
  465SOL    HW2 1535   0.422   0.601   0.540 -0.1107 -0.1036  0.0442
  466SOL     OW 1536   2.878   2.690   2.884  0.3018  0.0533 -0.2658
  466SOL    HW1 1537   2.842   2.645   2.961  0.1755 -0.4266 -0.6017
  466SOL    HW2 1538   2.809   2.750   2.857  0.3796  0.2847  0.0451
  467SOL     OW 1539   2.154   2.112   0.846 -0.0461  0.0436 -0.4391
  467SOL    HW1 1540   2.161   2.147   0.935  0.7721 -0.1854 -0.4059
  467SOL    HW2 1541   2.244   2.104   0.816 -0.3240  0.3896 -1.4051
  468SOL     OW 1542   0.735   3.503   1.036  0.2704 -0.3205  0.1152
  468SOL    HW1 1543   0.797   3.436   1.007  1.6834  0.1704  1.8476
  468SOL    HW2 1544   0.752   3.578   0.979  0.2543 -0.6804 -0.3648
  469SOL     OW 1545   1.929   0.290   2.364 -0.0159 -0.0839  0.4927
  469SOL    HW1 1546   1.884   0.372   2.344  2.2413  0.6586 -2.1797
  469SOL    HW2 1547   1.946   0.293   2.458  1.8379  3.5514  0.1822
  470SOL     OW 1548   2.576   0.633   1.344  0.2209 -0.2249  0.1144
  470SOL    HW1 1549   2.592   0.541   1.324  0.0382 -0.3956  0.7073
  470SOL    HW2 1550   2.659   0.665   1.380  0.2183 -0.2227  0.1184
  471SOL     OW 1551   1.179   2.637   3.500  0.4058 -0.0630  0.3227
  471SOL    HW1 1552   1.119   2.708   3.525  1.3594  0.7922  0.2329
  471SOL    HW2 1553   1.163   2.569   3.566 -0.2484  0.3809  0.6376
  472SOL     OW 1554   0.600   1.791   2.673  0.1464 -0.1227 -0.4104
  472SOL    HW1 1555   0.615   1.701   2.645 -1.1307 -0.4813 -0.0241
  472SOL    HW2 1556   0.514   1.813   2.636  0.3931  0.8870 -0.3891
  473SOL     OW 1557   0.666   2.517   3.139  0.0890 -0.0310 -0.3164
  473SOL    HW1 1558   0.735   2.528   3.205 -0.7122  0.4924  0.4596
  473SOL    HW2 1559   0.664   2.422   3.123 -0.8720 -0.4240  1.7393
  474SOL     OW 1560   1.110   1.524   1.680  0.2778  0.4385  0.1540
  474SOL    HW1 1561   1.162   1.466   1.735  1.5334  1.7776  0.4378
  474SOL    HW2 1562   1.172   1.589   1.647 -1.0092  1.4472 -0.3904
  475SOL     OW 1563   3.430   1.468   2.743  0.2926  0.1430  0.5261
  475SOL    HW1 1564   3.431   1.409   2.818  1.5399 -1.0701 -0.3905
  475SOL    HW2 1565   3.522   1.489   2.728  0.1646 -0.3516 -1.1776
  476SOL     OW 1566   3.635   0.696   0.884  0.0231 -0.0820  0.2803
  476SOL    HW1 1567   3.603   0.755   0.816  2.2716 -0.3290 -1.1165
  476SOL    HW2 1568   3.730   0.703   0.879  0.3318 -2.4738  1.2785
  477SOL     OW 1569   2.360   3.469   0.086 -0.7563 -0.1681  0.3727
  477SOL    HW1 1570   2.400   3.413   0.019  0.1208  0.3437  0.4548
  477SOL    HW2 1571   2.309   3.533   0.036  1.8896  1.7999 -0.0275
  478SOL     OW 1572   1.853   2.516   0.445 -0.1373  0.0562 -0.2398
  478SOL    HW1 1573   1.801   2.577   0.394 -0.7776 -0.1616  0.1304
  478SOL    HW2 1574   1.869   2.442   0.386  0.0704  0.2862 -0.4731
  479SOL     OW 1575   1.455   3.613   2.942  0.1688 -0.0009  0.4865
  479SOL    HW1 1576   1.475   3.546   3.007  0.8587 -0.1508  0.1221
  479SOL    HW2 1577   1.381   3.577   2.893  0.9416 -0.7919 -0.1255
  480SOL     OW 1578   1.321   2.783   2.694 -0.6218  0.5214 -0.3144
  480SOL    HW1 1579   1.238   2.787   2.741 -0.1402  0.3493  0.5634
  480SOL    HW2 1580   1.364   2.704   2.727  0.2854  1.0939 -0.0973
  481SOL     OW 1581   2.717   0.614   2.527 -0.2489 -0.1969 -0.7630
  481SOL    HW1 1582   2.743   0.532   2.485  1.7040  0.6292 -1.3157
  481SOL    HW2 1583   2.664   0.587   2.602  2.3515 -2.1898  0.5695
  482SOL     OW 1584   2.031   1.885   0.407 -0.4898 -0.0228  0.2014
  482SOL    HW1 1585   2.000   1.865   0.319 -0.6503  0.8615  0.0494
  482SOL    HW2 1586   1.954   1.875   0.463 -0.7797  0.9655  0.0015
  483SOL     OW 1587   1.736   3.712   3.539 -0.7254 -0.7888  0.3264
  483SOL    HW1 1588   1.743   3.696   3.445 -0.1444  1.4989 -0.0780
  483SOL    HW2 1589   1.670   3.650   3.569 -0.2001 -2.2580 -1.3970
  484SOL     OW 1590   3.166   2.356   3.608  0.9748 -0.4057 -0.5794
  484SOL    HW1 1591   3.083   2.403   3.608  0.5735 -1.1045 -0.4826
  484SOL    HW2 1592   3.225   2.412   3.660  1.4726  1.6045 -3.0868
  485SOL     OW 1593   2.038   2.226   3.062 -0.3622 -0.0898  0.2202
  485SOL    HW1 1594   1.996   2.266   2.986 -1.2592 -1.6032 -0.1175
  485SOL    HW2 1595   2.112   2.284   3.082  0.4889 -0.1375 -2.4105
  486SOL     OW 1596   0.217   0.190   2.524 -0.0241 -0.5058 -0.1663
  486SOL    HW1 1597   0.191   0.137   2.449 -0.2200  0.3420 -0.7039
  486SOL    HW2 1598   0.165   0.270   2.517  0.7907  0.0761  0.2341
  487SOL     OW 1599   0.279   3.173   3.251 -0.0050  0.3096 -0.0584
  487SOL    HW1 1600   0.357   3.226   3.262  0.6256 -0.6278  0.0514
  487SOL    HW2 1601   0.302   3.109   3.184 -0.4388 -0.4017  0.4546
  488SOL     OW 1602   3.718   2.857   0.474 -0.3436 -0.2899 -0.1313
  488SOL    HW1 1603   3.625   2.875   0.459 -0.0300  0.8428 -0.8880
  488SOL    HW2 1604   3.755   2.941   0.499  0.7382 -0.4108 -1.2417
  489SOL     OW 1605   2.757   2.660   0.465 -0.0613  0.6792 -0.1541
  489SOL    HW1 1606   2.684   2.707   0.504  0.6905 -1.2376  4.2093
  489SOL    HW2 1607   2.833   2.715   0.482 -0.0462  1.4882 -2.4309
  490SOL     OW 1608   0.589   1.970   1.638  0.5631 -0.3834 -0.4383
  490SOL    HW1 1609   0.518   1.921   1.681  1.9206 -1.9587  0.0916
  490SOL    HW2 1610   0.547   2.052   1.611 -1.6575 -1.5700 -0.8523
  491SOL     OW 1611   1.345   0.627   0.514  0.3400 -0.1760  0.2100
  491SOL    HW1 1612   1.410   0.612   0.445  0.9948  1.2845  0.4547
  491SOL    HW2 1613   1.286   0.552   0.509  2.8612 -2.3765  0.9259
  492SOL     OW 1614   3.693   1.724   1.656  0.4172  0.7686  0.2024
  492SOL    HW1 1615   3.623   1.736   1.720  0.0072 -0.2880 -0.0168
  492SOL    HW2 1616   3.774   1.734   1.706  0.1205 -1.0807  1.1417
  493SOL     OW 1617   2.153   2.154   0.392 -0.1427 -0.0563 -0.4380
  493SOL    HW1 1618   2.247   2.136   0.390 -0.3058 -0.8824 -0.8845
  493SOL    HW2 1619   2.114   2.075   0.428 -0.5383  0.9247  1.4565
  494SOL     OW 1620   0.490   1.665   3.730 -0.5308 -0.7825  0.4123
  494SOL    HW1 1621   0.428   1.691   3.661  0.2223 -2.9101 -1.1962
  494SOL    HW2 1622   0.464   1.576   3.753  0.8060 -1.0470  1.0056
  495SOL     OW 1623   2.740   2.086   1.346 -0.1419  0.0032  0.2970
  495SOL    HW1 1624   2.799   2.118   1.278  0.2425  3.0416  1.8842
  495SOL    HW2 1625   2.655   2.127   1.327 -0.2356  0.2453  1.1665
  496SOL     OW 1626   0.413   2.642   2.642  0.1018  0.0670 -0.7769
  496SOL    HW1 1627   0.452   2.604   2.721  0.1446  1.0791 -0.3054
  496SOL    HW2 1628   0.450   2.590   2.571  0.4541 -0.5380 -0.1713
  497SOL     OW 1629   3.307   1.997   2.471 -0.2258 -0.4441 -0.0360
  497SOL    HW1 1630   3.244   1.941   2.516 -1.2081 -1.1132 -2.1346
  497SOL    HW2 1631   3.393   1.962   2.496 -0.8088 -2.4824 -0.7567
  498SOL     OW 1632   3.112   1.508   1.929 -0.5968  0.5194 -0.2100
  498SOL    HW1 1633   3.052   1.543   1.863  0.2349 -0.3425 -1.4670
  498SOL    HW2 1634   3.054   1.463   1.991 -1.3829  1.2052 -0.4239
  499SOL     OW 1635   2.061   2.886   0.846 -0.0118 -0.7954  0.3003
  499SOL    HW1 1636   2.054   2.862   0.939 -0.3673 -1.5727  0.0756
  499SOL    HW2 1637   2.006   2.823   0.800 -2.5328  1.5108 -0.1683
  500SOL     OW 1638   1.539   3.493   3.450  0.2697  0.1376  0.3257
  500SOL    HW1 1639   1.545   3.525   3.540  0.1210  1.4573 -0.1180
  500SOL    HW2 1640   1.528   3.398   3.459 -2.0831  0.4772  1.7836
  501SOL     OW 1641   1.995   0.568   3.537 -0.4476  0.2058 -0.3259
  501SOL    HW1 1642   2.056   0.632   3.500  0.8117  0.3042  1.7261
  501SOL    HW2 1643   1.909   0.608   3.525  0.1952  1.6955 -0.2642
  502SOL     OW 1644   3.148   1.805  -0.010  0.5263 -0.0268 -0.1288
  502SOL    HW1 1645   3.139   1.818   0.085  2.3727 -0.0904  0.0845
  502SOL    HW2 1646   3.210   1.873  -0.038 -1.1574  1.0036 -1.5958
  503SOL     OW 1647   2.695   0.186   1.314  0.7209  0.0966  0.3890
  503SOL    HW1 1648   2.689   0.196   1.219  0.8480 -3.6064 -0.1733
  503SOL    HW2 1649   2.789   0.173   1.330  0.7393  1.0132  1.1120
  504SOL     OW 1650   3.047   1.465   3.298  0.3042 -0.0649 -0.2118
  504SOL    HW1 1651   3.094   1.543   3.329 -0.1431 -0.0943  0.5749
  504SOL    HW2 1652   3.047   1.474   3.203  0.5759  0.7133 -0.1503
  505SOL     OW 1653   0.977   0.136   3.499 -0.1343  0.3205 -0.5747
  505SOL    HW1 1654   0.905   0.190   3.530 -1.1681 -1.8116  0.9658
  505SOL    HW2 1655   0.979   0.061   3.559  2.9658 -0.0316 -0.9401
  506SOL     OW 1656   1.807   1.519   3.610  0.1329 -0.3513 -0.2058
  506SOL    HW1 1657   1.796   1.535   3.704  0.2052 -1.1486 -0.0552
  506SOL    HW2 1658   1.741   1.453   3.589  0.2402 -0.3102 -0.6781
  507SOL     OW 1659   0.553   2.468   2.778 -0.0907 -0.0628 -0.2828
  507SOL    HW1 1660   0.648   2.485   2.777 -0.2493  0.9253  0.5288
  507SOL    HW2 1661   0.545   2.377   2.750  1.1249 -0.2802  0.0260
  508SOL     OW 1662   3.079   3.676   0.184  0.2259  0.3115 -0.3962
  508SOL    HW1 1663   3.026   3.701   0.109 -1.8381  0.3408  0.9673
  508SOL    HW2 1664   3.056   3.739   0.252 -0.1849 -1.3776  1.1185
  509SOL     OW 1665   1.337   0.454   2.733  0.2525 -0.6233  0.6201
  509SOL    HW1 1666   1.427   0.423   2.735  1.3284  2.1555 -0.0707
  509SOL    HW2 1667   1.332   0.512   2.657 -2.4297 -1.4446  0.0361
  510SOL     OW 1668   1.806   3.496   0.992  0.2327  0.0184  0.3703
  510SOL    HW1 1669   1.878   3.435   0.980  0.0329 -0.2714  0.6318
  510SOL    HW2 1670   1.806   3.516   1.086  0.7328  0.9631  0.1767
  511SOL     OW 1671   1.277   1.840   2.072 -0.0721  0.4886  0.1818
  511SOL    HW1 1672   1.274   1.855   1.977 -0.0884 -0.7606 -0.0347
  511SOL    HW2 1673   1.189   1.810   2.094 -0.0972  0.8770  0.6171
  512SOL     OW 1674   1.046   1.138   3.344 -0.0746 -0.5474  0.4272
  512SOL    HW1 1675   0.981   1.140   3.274  0.5435 -0.0929 -0.1423
  512SOL    HW2 1676   1.024   1.060   3.395 -0.6668 -0.7587 -0.1428
  513SOL     OW 1677   3.394   1.537   3.093  0.2558  0.6501 -0.5819
  513SOL    HW1 1678   3.475   1.587   3.105 -0.8415  2.3673  0.1595
  513SOL    HW2 1679   3.422   1.454   3.054  2.3173  1.3189 -0.6501
  514SOL     OW 1680   2.694   3.642   3.607 -0.5355  0.5986 -0.3726
  514SOL    HW1 1681   2.652   3.698   3.672 -0.0762 -1.6002  1.9901
  514SOL    HW2 1682   2.782   3.626   3.643 -0.5137 -1.2583 -1.1628
  515SOL     OW 1683   2.631   3.181   1.217 -0.4084  0.3886 -0.1158
  515SOL    HW1 1684   2.678   3.139   1.289 -2.6760 -2.0222  0.0936
  515SOL    HW2 1685   2.553   3.218   1.258 -0.5242  1.1741 -1.0035
  516SOL     OW 1686   2.903   3.006   2.634  0.7136  0.3619  0.0786
  516SOL    HW1 1687   2.989   3.032   2.666  0.1844  2.0438  0.2431
  516SOL    HW2 1688   2.857   3.089   2.620 -0.1092 -0.4104 -2.1878
  517SOL     OW 1689   2.225   1.487   1.995  0.2045  0.8185 -0.0050
  517SOL    HW1 1690   2.175   1.424   1.943 -0.5069  1.4745 -0.1392
  517SOL    HW2 1691   2.299   1.437   2.029  0.0157  0.0822 -0.6523
  518SOL     OW 1692   1.182   3.175   2.811 -0.0599  0.4771  0.5458
  518SOL    HW1 1693   1.243   3.135   2.749 -1.1515  0.0217 -0.2534
  518SOL    HW2 1694   1.225   3.164   2.896  1.7683  1.6872 -0.1433
  519SOL     OW 1695   1.033   2.380   0.255  0.1648 -0.1655 -0.5072
  519SOL    HW1 1696   0.988   2.298   0.236 -0.4847  0.0594  0.0163
  519SOL    HW2 1697   1.017   2.435   0.178 -1.1525  0.1975 -0.0028
  520SOL     OW 1698   3.438   1.591   1.009 -0.2230 -0.1717 -0.1364
  520SOL    HW1 1699   3.476   1.630   1.088 -0.5397  1.1016 -0.5804
  520SOL    HW2 1700   3.343   1.596   1.023 -0.3149 -2.7390  0.6864
  521SOL     OW 1701   0.977   3.131   2.275  0.8428  0.0004  0.0504
  521SOL    HW1 1702   1.057   3.077   2.276  1.0628  0.3250 -0.0257
  521SOL    HW2 1703   0.977   3.174   2.361  0.2599 -0.7128  0.4217
  522SOL     OW 1704   2.807   2.108   3.096  1.1284  0.0854  0.1636
  522SOL    HW1 1705   2.773   2.120   3.185  0.2062 -1.4359  0.0583
  522SOL    HW2 1706   2.754   2.167   3.042  0.8777  0.1424  0.4649
  523SOL     OW 1707   0.624   2.760   2.026  0.4782  0.2750 -0.2841
  523SOL    HW1 1708   0.546   2.751   2.081  1.5318  0.0368  1.2562
  523SOL    HW2 1709   0.691   2.708   2.071  1.0198 -1.2574 -2.6552
  524SOL     OW 1710   2.394   0.876   3.599  0.2313  0.1767  0.0843
  524SOL    HW1 1711   2.475   0.924   3.616  1.5413 -1.8707 -0.0518
  524SOL    HW2 1712   2.339   0.894   3.675  0.2959  2.5202 -0.3432
  525SOL     OW 1713   2.698   0.262   0.301 -0.2390  0.5834  0.2333
  525SOL    HW1 1714   2.743   0.291   0.381 -0.0805  0.8080  0.0653
  525SOL    HW2 1715   2.691   0.167   0.310  1.5289  0.3500 -0.3620
  526SOL     OW 1716   2.496   0.933   2.891 -0.2636  0.4597  0.0245
  526SOL    HW1 1717   2.407   0.916   2.920 -1.1543  1.2330 -2.0466
  526SOL    HW2 1718   2.529   0.999   2.952 -1.2647  0.4917  0.5516
  527SOL     OW 1719   2.139   2.540   1.482 -0.6326 -0.3141 -0.1067
  527SOL    HW1 1720   2.051   2.575   1.493 -0.0673  1.8384 -1.6120
  527SOL    HW2 1721   2.185   2.565   1.563 -0.9913  0.0064  0.0011
  528SOL     OW 1722   3.174   3.009   1.104 -0.5994  0.4764  0.0210
  528SOL    HW1 1723   3.194   2.920   1.076 -1.8087  0.5891 -1.2789
  528SOL    HW2 1724   3.260   3.047   1.125 -0.0480 -0.9093  0.4290
  529SOL     OW 1725   1.227   3.035   1.676  0.5983  0.1580 -0.0818
  529SOL    HW1 1726   1.186   3.059   1.759  1.6401  0.5408  0.3296
  529SOL    HW2 1727   1.236   2.940   1.680  1.7204  0.2908  0.7540
  530SOL     OW 1728   0.712   0.177   0.146  0.1968 -0.3104 -0.5079
  530SOL    HW1 1729   0.648   0.223   0.091  0.1193 -0.1392 -0.2763
  530SOL    HW2 1730   0.707   0.222   0.230  2.1846  1.1472 -1.0795
  531SOL     OW 1731   3.252   0.987   0.378 -0.6539  0.5040  0.6204
  531SOL    HW1 1732   3.345   0.981   0.355 -0.9664  0.7026 -0.7683
  531SOL    HW2 1733   3.237   1.081   0.393 -0.7797  0.5549  0.1781
  532SOL     OW 1734   3.051   1.914   1.643  0.0576  0.5863  0.3726
  532SOL    HW1 1735   3.037   1.983   1.578 -0.0502 -1.2392 -1.6612
  532SOL    HW2 1736   2.969   1.909   1.691 -0.4682  0.8729 -0.4777
  533SOL     OW 1737   3.237   2.770   1.008 -0.6628 -0.1736  0.6816
  533SOL    HW1 1738   3.312   2.780   0.949 -0.7890  0.2489  0.5922
  533SOL    HW2 1739   3.238   2.677   1.032 -1.0184 -0.5079 -0.5255
  534SOL     OW 1740   1.957   2.464   3.476  0.6035 -0.4292 -0.5913
  534SOL    HW1 1741   1.933   2.393   3.416 -1.2627 -0.5183  0.1853
  534SOL    HW2 1742   2.003   2.420   3.547 -0.4976 -0.8868 -0.1388
  535SOL     OW 1743   3.021   2.554   2.671  0.4829 -0.1593 -0.4023
  535SOL    HW1 1744   3.114   2.576   2.664 -0.0880  2.1840 -1.6880
  535SOL    HW2 1745   2.991   2.601   2.748  0.2018 -0.2408 -0.4603
  536SOL     OW 1746   0.638   1.085   2.597  0.0648 -0.7874  0.3134
  536SOL    HW1 1747   0.675   1.036   2.523 -2.0887 -0.9663 -0.7471
  536SOL    HW2 1748   0.543   1.074   2.587 -0.3604  0.8498  1.9891
  537SOL     OW 1749   3.697   1.044   3.657  0.1766 -0.2743 -0.1991
  537SOL    HW1 1750   3.622   1.084   3.703  2.1191  1.0229  2.0738
  537SOL    HW2 1751   3.699   0.954   3.688 -2.5907 -1.5816 -3.2369
  538SOL     OW 1752   0.227   2.802   1.372 -0.1264 -0.4470 -0.3541
  538SOL    HW1 1753   0.277   2.755   1.439  0.4556  0.5162 -0.0941
  538SOL    HW2 1754   0.151   2.746   1.355  0.5321 -1.4630 -0.0440
  539SOL     OW 1755   2.299   2.559   2.389 -0.1244  0.7694  0.3104
  539SOL    HW1 1756   2.253   2.478   2.413  2.1905 -0.2986  1.4183
  539SOL    HW2 1757   2.324   2.546   2.297  0.0104  0.3309  0.4061
  540SOL     OW 1758   2.674   2.786   1.963 -0.1049  0.2393 -0.7004
  540SOL    HW1 1759   2.601   2.783   1.901  1.4901  0.3761 -2.7094
  540SOL    HW2 1760   2.674   2.700   2.005  0.4855 -1.0120 -3.0935
  541SOL     OW 1761   0.414   2.224   2.691 -0.2173 -0.2336 -0.0313
  541SOL    HW1 1762   0.471   2.156   2.727 -1.8454 -0.9120  1.4115
  541SOL    HW2 1763   0.348   2.176   2.640  1.9638  0.6807 -4.1608
  542SOL     OW 1764   3.208   0.511   0.209 -0.1899  0.3280 -0.3178
  542SOL    HW1 1765   3.153   0.478   0.280  0.2000 -0.2734 -0.2927
  542SOL    HW2 1766   3.152   0.509   0.132 -0.2790 -0.0529 -0.2439
  543SOL     OW 1767   0.586   2.192   2.116 -0.3317  0.0868  0.0390
  543SOL    HW1 1768   0.644   2.179   2.041 -0.5808  1.3621 -0.4052
  543SOL    HW2 1769   0.516   2.247   2.082 -0.7838  0.1575  1.0592
  544SOL     OW 1770   2.896   2.225   0.378 -0.1073 -0.3534 -1.1863
  544SOL    HW1 1771   2.818   2.228   0.323 -0.4465  0.0566 -0.7030
  544SOL    HW2 1772   2.863   2.199   0.464 -0.2949  2.9448 -0.1024
  545SOL     OW 1773   0.916   2.367   2.879 -0.2884  0.3448 -0.6250
  545SOL    HW1 1774   0.882   2.372   2.789 -0.6991 -3.6890 -0.8450
  545SOL    HW2 1775   1.000   2.412   2.874 -0.7057  1.0363 -2.7748
  546SOL     OW 1776   2.354   0.116   1.140  0.2498  0.3555 -0.2166
  546SOL    HW1 1777   2.271   0.074   1.163 -0.4638  0.6096 -2.1530
  546SOL    HW2 1778   2.363   0.187   1.203 -0.7899  0.0834  0.2632
  547SOL     OW 1779   1.554   2.331   0.233  0.2128 -0.1918  0.2508
  547SOL    HW1 1780   1.469   2.337   0.188  0.0394  0.8751  0.6951
  547SOL    HW2 1781   1.542   2.379   0.315  0.7154 -1.5722  1.1845
  548SOL     OW 1782   1.381   0.876   0.277 -0.4830 -0.9154 -0.5410
  548SOL    HW1 1783   1.442   0.949   0.288  0.6992 -1.9442  0.0478
  548SOL    HW2 1784   1.407   0.836   0.194  0.0487 -1.6972 -0.0133
  549SOL     OW 1785   0.571   0.534   0.615 -0.5508  0.1372  0.2809
  549SOL    HW1 1786   0.662   0.545   0.640 -0.3714 -0.7297  0.0311
  549SOL    HW2 1787   0.524   0.523   0.698 -0.0628 -1.9605  0.3374
  550SOL     OW 1788   1.954   0.871   3.452 -0.0199  0.0464 -0.1682
  550SOL    HW1 1789   2.002   0.833   3.526  0.3566 -0.4006 -0.6350
  550SOL    HW2 1790   1.940   0.962   3.477  1.5269  0.3268 -0.2334
  551SOL     OW 1791   0.958   0.717   2.827  0.5609 -0.7899  0.5570
  551SOL    HW1 1792   1.049   0.747   2.836  0.7484 -0.2575 -2.2557
  551SOL    HW2 1793   0.911   0.795   2.798  0.3370 -2.1534 -3.2983
  552SOL     OW 1794   2.403   2.381   1.853  0.5177  0.7355 -0.2775
  552SOL    HW1 1795   2.458   2.320   1.805 -0.5479 -0.4358 -0.0464
  552SOL    HW2 1796   2.397   2.344   1.941  0.6345  1.6908  0.1516
  553SOL     OW 1797   0.865   2.871   2.676 -0.2716 -0.5346 -0.3050
  553SOL    HW1 1798   0.859   2.958   2.716 -1.8559 -1.1260  0.8364
  553SOL    HW2 1799   0.834   2.884   2.586 -0.2702  0.1096 -0.2174
  554SOL     OW 1800   2.297   1.795   2.270  0.4565  0.0566 -0.5195
  554SOL    HW1 1801   2.332   1.735   2.204 -1.5119 -1.7874 -0.0063
  554SOL    HW2 1802   2.236   1.851   2.221  1.5626  1.0296 -0.8240
  555SOL     OW 1803   0.999   2.477   0.636 -0.5622  0.1093  0.0373
  555SOL    HW1 1804   0.904   2.472   0.623 -0.6843 -0.9253  1.1704
  555SOL    HW2 1805   1.026   2.552   0.583 -1.5680 -1.3739 -2.7412
  556SOL     OW 1806   0.844   0.445   3.196  0.2959  0.4461  0.0279
  556SOL    HW1 1807   0.831   0.455   3.102 -0.9370  1.7247  0.2854
  556SOL    HW2 1808   0.757   0.459   3.233  0.7448 -0.1362  1.3551
  557SOL     OW 1809   3.071   3.490   2.203 -0.0796 -0.1892  0.0354
  557SOL    HW1 1810   3.099   3.408   2.243  0.6186 -1.0415 -2.0362
  557SOL    HW2 1811   3.149   3.522   2.157 -0.5260  1.2982  0.2584
  558SOL     OW 1812   2.609   2.331   1.191 -0.2104  0.2408  0.4073
  558SOL    HW1 1813   2.617   2.410   1.244  2.3228  0.0862  0.3827
  558SOL    HW2 1814   2.583   2.362   1.105 -3.5767  0.5632  1.3972
  559SOL     OW 1815   2.470   3.608   1.582 -0.0654  0.1598 -0.1562
  559SOL    HW1 1816   2.504   3.519   1.596  0.4456 -0.0434 -2.3300
  559SOL    HW2 1817   2.377   3.595   1.564 -0.3673  0.2739  1.1656
  560SOL     OW 1818   3.026   0.797   0.761 -0.0216  0.4475  0.5019
  560SOL    HW1 1819   2.983   0.854   0.824 -0.3439 -1.3109  1.9668
  560SOL    HW2 1820   3.027   0.711   0.804  0.8713 -0.5435 -1.3973
  561SOL     OW 1821   0.380   1.521   0.507  0.3844 -0.3488  0.3570
  561SOL    HW1 1822   0.432   1.484   0.578  1.3741 -0.3300 -0.3299
  561SOL    HW2 1823   0.424   1.490   0.427  0.7376  1.5873 -0.2385
  562SOL     OW 1824   3.696   0.425   1.764  0.2444 -0.1051  0.0493
  562SOL    HW1 1825   3.605   0.447   1.746  0.5478  1.2247  0.0301
  562SOL    HW2 1826   3.734   0.506   1.798  1.2742 -0.8042  0.6328
  563SOL     OW 1827   3.687   2.375   3.136 -0.4087 -0.1821  0.3886
  563SOL    HW1 1828   3.767   2.324   3.148 -0.5219 -0.5002 -0.2014
  563SOL    HW2 1829   3.622   2.312   3.105 -0.8746  0.0857  0.8069
  564SOL     OW 1830   2.909   2.302   1.203  0.4957 -0.2759  0.2306
  564SOL    HW1 1831   2.911   2.287   1.109 -1.3496 -0.9661  0.2618
  564SOL    HW2 1832   2.819   2.329   1.221  0.4295 -1.5048  1.9667
  565SOL     OW 1833   0.464   1.953   2.988 -0.2146 -0.5378  0.0899
  565SOL    HW1 1834   0.528   1.977   3.054 -0.9853 -0.1904  0.7227
  565SOL    HW2 1835   0.506   1.976   2.905  0.8880 -1.2809  0.4245
  566SOL     OW 1836   1.213   1.372   1.888 -1.0016 -0.2686  0.0392
  566SOL    HW1 1837   1.252   1.285   1.893  0.5184  0.4344  2.8508
  566SOL    HW2 1838   1.148   1.374   1.958 -0.7816  0.9051  0.2440
  567SOL     OW 1839   1.899   0.175   0.773 -0.0779 -0.5655 -0.1432
  567SOL    HW1 1840   1.804   0.183   0.765  0.1505  1.8921 -1.6048
  567SOL    HW2 1841   1.929   0.265   0.787  2.1873 -0.8767 -2.2987
  568SOL     OW 1842   2.870   2.316   0.911 -0.6808 -0.4895  0.1848
  568SOL    HW1 1843   2.963   2.293   0.910 -0.7854 -1.1332  1.7156
  568SOL    HW2 1844   2.833   2.270   0.835  0.3887  0.5472 -1.0115
  569SOL     OW 1845   3.343   3.337   1.925 -0.0339 -0.2391  0.4389
  569SOL    HW1 1846   3.279   3.386   1.976  1.1014 -0.0416  1.7120
  569SOL    HW2 1847   3.413   3.316   1.987  1.3326 -0.1004 -0.9899
  570SOL     OW 1848   0.211   0.243   0.217  0.7171 -0.5671 -0.2777
  570SOL    HW1 1849   0.269   0.167   0.214  0.9343 -0.4399  0.4766
  570SOL    HW2 1850   0.188   0.259   0.125  2.6992  0.0171 -0.7186
  571SOL     OW 1851   2.250   3.425   1.543  0.5810  0.3993 -0.3352
  571SOL    HW1 1852   2.242   3.393   1.633  2.3657 -2.7350 -1.1480
  571SOL    HW2 1853   2.184   3.495   1.537 -0.3491  0.0164  3.0447
  572SOL     OW 1854   0.152   0.995   3.137  0.6969 -0.0426  0.5406
  572SOL    HW1 1855   0.190   1.059   3.078 -1.7175  1.0067  0.0165
  572SOL    HW2 1856   0.165   1.033   3.224  0.1057  0.7337  0.3025
  573SOL     OW 1857   0.246   3.590   3.192 -0.2326  0.4258 -0.2842
  573SOL    HW1 1858   0.326   3.543   3.170 -0.6450  0.4891 -2.0785
  573SOL    HW2 1859   0.276   3.679   3.212  0.1936  0.3088 -0.3848
  574SOL     OW 1860   2.274   1.125   2.237  0.0579 -0.3053 -0.0578
  574SOL    HW1 1861   2.244   1.035   2.234 -3.1677  0.6534 -0.8106
  574SOL    HW2 1862   2.233   1.167   2.161 -1.4373  2.4983  2.0893
  575SOL     OW 1863   2.812   1.788   1.317 -0.7281  0.1259  0.1614
  575SOL    HW1 1864   2.725   1.796   1.279 -0.4445  1.8502 -0.1958
  575SOL    HW2 1865   2.831   1.875   1.352  0.5493 -0.4266  0.9105
  576SOL     OW 1866   0.161   1.148   1.617  0.0034  0.4769  1.0740
  576SOL    HW1 1867   0.121   1.066   1.646  1.7879 -0.7663  0.2199
  576SOL    HW2 1868   0.215   1.176   1.691  1.3558 -0.4982  0.4842
  577SOL     OW 1869   0.092   1.565   2.095  0.2297 -0.8213 -0.3834
  577SOL    HW1 1870   0.043   1.520   2.025 -1.7845 -1.2911  1.2208
  577SOL    HW2 1871   0.119   1.648   2.055 -0.1707 -1.4015 -1.9597
  578SOL     OW 1872   3.567   0.829   0.295 -0.2677  0.7693 -0.6026
  578SOL    HW1 1873   3.546   0.786   0.378  0.6962 -1.1127 -1.2647
  578SOL    HW2 1874   3.643   0.781   0.263  0.0651  2.2020 -2.0449
  579SOL     OW 1875   0.370   3.140   3.536  0.0467 -0.3934  0.4021
  579SOL    HW1 1876   0.303   3.074   3.555 -1.2496  1.2178  1.7320
  579SOL    HW2 1877   0.345   3.175   3.450 -0.8764  0.2538  0.9274
  580SOL     OW 1878   3.268  -0.004   3.542  0.3297  1.0961 -0.1109
  580SOL    HW1 1879   3.226   0.051   3.476  1.9422  2.8833  0.2736
  580SOL    HW2 1880   3.357  -0.019   3.510 -0.2192 -1.9729 -0.5362
  581SOL     OW 1881   0.203   2.925   1.070 -1.0947  0.1605 -0.3195
  581SOL    HW1 1882   0.281   2.961   1.113 -2.0094  1.8928 -0.0400
  581SOL    HW2 1883   0.213   2.830   1.079  0.3154  0.3836  0.9027
  582SOL     OW 1884   1.300   3.118   0.017  0.1933  0.0456 -0.3970
  582SOL    HW1 1885   1.235   3.129  -0.052 -0.6068 -1.1863  0.1142
  582SOL    HW2 1886   1.249   3.121   0.098  0.7325 -1.0050  0.0055
  583SOL     OW 1887   0.682   1.854   0.115  1.3236 -0.6714 -0.3677
  583SOL    HW1 1888   0.613   1.807   0.068 -1.4753  1.2338  1.5596
  583SOL    HW2 1889   0.671   1.828   0.206  2.3181  0.6499  0.1571
  584SOL     OW 1890   1.513   1.843   3.611 -0.2762 -0.8988 -1.0587
  584SOL    HW1 1891   1.490   1.832   3.704  0.4206 -2.3005 -1.0177
  584SOL    HW2 1892   1.465   1.921   3.584  1.2519  0.8825  1.0332
  585SOL     OW 1893   3.087   2.513   1.464 -0.3194  0.4084  0.1054
  585SOL    HW1 1894   3.134   2.593   1.439  0.6544  0.2489  1.3613
  585SOL    HW2 1895   3.115   2.448   1.400 -0.4031  0.8100 -0.3580
  586SOL     OW 1896   3.071   1.078   2.349  0.5623 -0.1987  0.2619
  586SOL    HW1 1897   3.117   1.010   2.398  0.0126 -1.1166 -0.4509
  586SOL    HW2 1898   3.039   1.034   2.270  0.0413  0.8467 -0.1422
  587SOL     OW 1899   1.730   2.132   3.669 -0.2255  0.0235 -0.2928
  587SOL    HW1 1900   1.712   2.074   3.743 -2.7378  0.3691 -0.5409
  587SOL    HW2 1901   1.647   2.178   3.655  0.2482  0.1619 -3.1363
  588SOL     OW 1902   2.094   0.461   0.653 -0.1973  0.6091  0.4852
  588SOL    HW1 1903   2.154   0.491   0.585  0.8853  0.0391  1.1505
  588SOL    HW2 1904   2.069   0.540   0.701  0.1105  0.8391  0.2661
  589SOL     OW 1905   1.836   2.654   1.735  0.6422  0.0147 -0.6781
  589SOL    HW1 1906   1.833   2.559   1.745 -1.4905  0.0960 -0.0930
  589SOL    HW2 1907   1.831   2.688   1.824 -0.0292  0.6726 -0.9570
  590SOL     OW 1908   1.597   0.749   3.133  0.0064 -0.0011 -0.2996
  590SOL    HW1 1909   1.590   0.681   3.199  1.3411 -0.0720 -0.1887
  590SOL    HW2 1910   1.589   0.831   3.181  1.2864 -0.0450  0.0341
  591SOL     OW 1911   2.345   2.194   1.580  0.2142  0.2562 -0.6271
  591SOL    HW1 1912   2.385   2.114   1.545 -0.5527 -0.2423 -0.3952
  591SOL    HW2 1913   2.418   2.245   1.614  0.8313  0.1469 -1.7602
  592SOL     OW 1914   0.678   1.514   2.587  0.7409  0.1633  0.5008
  592SOL    HW1 1915   0.760   1.467   2.598  0.9946  0.6647  0.7299
  592SOL    HW2 1916   0.638   1.513   2.674  0.5668  0.0453  0.4216
  593SOL     OW 1917   1.437   0.307   2.982 -0.2269  0.1719 -0.1237
  593SOL    HW1 1918   1.370   0.242   3.003  0.9334 -0.6525  1.2400
  593SOL    HW2 1919   1.402   0.389   3.017 -2.3997  0.7112 -3.1946
  594SOL     OW 1920   0.258   2.627   1.794  0.7110  0.0717  0.4253
  594SOL    HW1 1921   0.325   2.696   1.796 -0.0645  0.9148 -0.9614
  594SOL    HW2 1922   0.258   2.596   1.704 -0.7237  0.0588  0.4020
  595SOL     OW 1923   1.002   1.278   0.029 -0.2248 -0.3800  0.0241
  595SOL    HW1 1924   1.077   1.328   0.061  0.4186 -1.5117  0.3515
  595SOL    HW2 1925   1.039   1.193   0.005 -1.5289 -1.2752  1.0406
  596SOL     OW 1926   1.281   0.000   2.550  0.2090  0.3056 -0.0867
  596SOL    HW1 1927   1.241   0.057   2.485 -0.3461  0.3086  0.2565
  596SOL    HW2 1928   1.314   0.060   2.617 -0.1889  0.2406  0.1710
  597SOL     OW 1929   2.861   2.472   1.856  0.3437  0.3435 -0.0254
  597SOL    HW1 1930   2.902   2.532   1.918 -0.4321 -0.0860  0.9142
  597SOL    HW2 1931   2.920   2.396   1.854 -0.0708 -0.0121  0.8557
  598SOL     OW 1932   1.822   0.781   1.004 -0.8705 -0.0303 -0.2052
  598SOL    HW1 1933   1.737   0.754   0.968 -1.4566 -0.2545  1.2474
  598SOL    HW2 1934   1.809   0.873   1.028 -0.6590 -0.0216 -0.1235
  599SOL     OW 1935   3.523   1.758   1.880 -0.4639  0.1300  0.3212
  599SOL    HW1 1936   3.475   1.837   1.857  1.4345  1.5698  1.1018
  599SOL    HW2 1937   3.475   1.721   1.954 -1.1995  0.7250  0.1468
  600SOL     OW 1938   1.330   2.886   0.311 -0.3151 -0.3681  0.6808
  600SOL    HW1 1939   1.418   2.868   0.279 -0.8179 -0.8498 -0.5002
  600SOL    HW2 1940   1.343   2.940   0.389  1.0041  0.0084  0.2237
  601SOL     OW 1941   3.351   0.740   0.109 -0.1022 -0.9127 -1.1315
  601SOL    HW1 1942   3.372   0.763   0.199  1.5912 -2.4377 -1.0744
  601SOL    HW2 1943   3.303   0.657   0.117 -0.3681 -0.8091 -1.6222
  602SOL     OW 1944   2.800   1.468   0.173  0.0813  0.3368  0.0406
  602SOL    HW1 1945   2.752   1.430   0.100 -0.4665  0.7288  0.1879
  602SOL    HW2 1946   2.868   1.403   0.194  0.7588  0.5660 -1.3120
  603SOL     OW 1947   0.996   3.042   0.404  0.4342  0.2621 -0.0712
  603SOL    HW1 1948   0.955   3.120   0.440  0.4933 -0.0463  0.6753
  603SOL    HW2 1949   1.073   3.075   0.358  0.3570  0.6606  0.0815
  604SOL     OW 1950   2.377   3.050   3.543 -0.7224 -0.3795 -0.0455
  604SOL    HW1 1951   2.323   3.067   3.619 -0.2239 -0.7184  0.3922
  604SOL    HW2 1952   2.416   2.964   3.560  0.0218 -0.1018 -0.3061
  605SOL     OW 1953   1.999   1.276   2.131  0.0466  0.1668 -0.4627
  605SOL    HW1 1954   2.002   1.296   2.225  0.0721 -0.4335 -0.3343
  605SOL    HW2 1955   1.908   1.252   2.114 -0.8314  3.4505 -1.2785
  606SOL     OW 1956   0.650   3.233   0.877  0.3410  0.3406  0.2283
  606SOL    HW1 1957   0.708   3.268   0.810  1.0550 -0.4354  0.4227
  606SOL    HW2 1958   0.568   3.216   0.831  0.7000  0.1850 -0.3724
  607SOL     OW 1959   0.971   3.397   2.692 -0.2238 -0.4986  0.4471
  607SOL    HW1 1960   0.898   3.399   2.630 -0.8021  0.3792  1.1350
  607SOL    HW2 1961   0.949   3.463   2.757  1.8008  0.7179 -0.0250
  608SOL     OW 1962   1.219   2.935   2.226  0.3422 -0.0797  0.1651
  608SOL    HW1 1963   1.287   2.904   2.285  0.4612  0.2180  0.1856
  608SOL    HW2 1964   1.249   2.907   2.139 -1.1176 -2.8678  0.4590
  609SOL     OW 1965   0.080   1.084   2.564  0.1537 -0.5272 -0.1507
  609SOL    HW1 1966   0.047   1.026   2.495 -0.1234 -1.3311  0.6239
  609SOL    HW2 1967   0.082   1.028   2.642  2.8142 -0.3563 -0.0185
  610SOL     OW 1968   1.861   2.531   3.086  0.2858  0.6330  0.1501
  610SOL    HW1 1969   1.893   2.583   3.160  0.3633  0.8455 -0.0294
  610SOL    HW2 1970   1.905   2.568   3.010  0.8957 -0.1732  0.1012
  611SOL     OW 1971   2.623   2.356   2.392  0.1892  0.3878 -0.1895
  611SOL    HW1 1972   2.639   2.400   2.308 -0.4977  0.3117 -0.3648
  611SOL    HW2 1973   2.674   2.276   2.387 -1.1022 -0.4035 -1.2099
  612SOL     OW 1974   3.149   3.390   3.278  0.4432  0.3590  0.8042
  612SOL    HW1 1975   3.121   3.380   3.369 -0.1349  2.2911  0.8695
  612SOL    HW2 1976   3.077   3.434   3.234  2.0024  2.5251  0.2228
  613SOL     OW 1977   1.924   1.184   1.326  0.1433  0.2824 -0.8299
  613SOL    HW1 1978   1.975   1.181   1.407 -0.8903 -0.5666 -0.1736
  613SOL    HW2 1979   1.980   1.230   1.264  2.0178 -1.2225 -0.3657
  614SOL     OW 1980   0.429   2.654   0.960 -0.5975 -0.6693 -0.0783
  614SOL    HW1 1981   0.388   2.569   0.974  2.1635 -2.0924  0.1579
  614SOL    HW2 1982   0.449   2.687   1.048  3.4978 -2.6486 -0.0426
  615SOL     OW 1983   0.995   1.566   3.239 -0.1100  0.4640  0.1432
  615SOL    HW1 1984   0.929   1.603   3.298  0.4254 -0.7147  1.5472
  615SOL    HW2 1985   0.961   1.583   3.151 -0.7851  2.5604  0.7531
  616SOL     OW 1986   1.451   0.348   0.656 -0.3170 -0.3399 -0.2004
  616SOL    HW1 1987   1.498   0.268   0.680  0.4608  0.3416  0.5924
  616SOL    HW2 1988   1.516   0.403   0.612 -0.7366  0.0326 -0.3713
  617SOL     OW 1989   3.069   0.988   3.422  0.5414  0.0253  0.6839
  617SOL    HW1 1990   3.053   1.024   3.335  0.8208 -0.0958  0.5810
  617SOL    HW2 1991   3.076   0.894   3.408 -2.3369 -0.3602  1.2456
  618SOL     OW 1992   3.343   1.948   1.815  1.0772 -0.4586  0.3100
  618SOL    HW1 1993   3.322   2.031   1.857  0.2791 -0.0531 -0.8524
  618SOL    HW2 1994   3.374   1.972   1.727 -2.5494 -1.4474 -1.4301
  619SOL     OW 1995   0.763   0.949   2.924  0.4030 -0.3021 -0.1820
  619SOL    HW1 1996   0.709   1.026   2.940  0.4468 -0.2095 -0.4699
  619SOL    HW2 1997   0.700   0.876   2.925  0.2020 -0.1488 -0.9376
  620SOL     OW 1998   0.306   3.333   2.090 -0.3811 -0.1964 -0.0029
  620SOL    HW1 1999   0.335   3.406   2.036 -1.1558  0.6999  0.7669
  620SOL    HW2 2000   0.217   3.316   2.062 -0.4325 -0.4058  0.2798
  621SOL     OW 2001   3.144   1.266   2.995 -0.1382 -0.6327 -0.4237
  621SOL    HW1 2002   3.227   1.244   3.039  2.0272  2.7966 -2.2651
  621SOL    HW2 2003   3.158   1.356   2.964 -3.8802 -0.6170 -2.5698
  622SOL     OW 2004   2.118   0.513   1.141  0.2157 -0.6152  0.3420
  622SOL    HW1 2005   2.048   0.462   1.100  1.3202 -1.7588 -0.1672
  622SOL    HW2 2006   2.147   0.574   1.073 -0.5526  0.1628  0.6916
  623SOL     OW 2007   3.124   2.371   1.947  0.2024  0.0338 -1.2887
  623SOL    HW1 2008   3.132   2.330   1.861  0.5214 -1.2300 -0.6775
  623SOL    HW2 2009   3.194   2.437   1.949 -0.2360  0.5516 -2.2336
  624SOL     OW 2010   1.656   3.010   1.593 -0.3421  0.3208 -0.0774
  624SOL    HW1 2011   1.685   2.971   1.675 -1.1703  0.5759  0.3471
  624SOL    HW2 2012   1.630   3.099   1.617 -0.3975  0.4678 -0.6587
  625SOL     OW 2013   0.608   3.693   2.928 -0.2198  0.2216  0.2941
  625SOL    HW1 2014   0.573   3.780   2.911 -2.6176 -0.8639 -0.8058
  625SOL    HW2 2015   0.598   3.646   2.845  0.2659 -1.3428  1.0676
  626SOL     OW 2016   0.170   0.965   2.812  0.5503  0.8096  0.3436
  626SOL    HW1 2017   0.214   1.036   2.858  3.6980  0.5636 -1.9861
  626SOL    HW2 2018   0.240   0.914   2.773 -1.6711 -2.4149  0.1360
  627SOL     OW 2019   0.220   2.485   1.068 -1.1038  0.3366 -0.6143
  627SOL    HW1 2020   0.131   2.488   1.102 -1.1196 -0.4531 -0.5694
  627SOL    HW2 2021   0.221   2.410   1.009 -0.0837 -0.6153  0.5597
  628SOL     OW 2022   0.666   1.798   0.397  0.3154  0.3135 -0.2540
  628SOL    HW1 2023   0.572   1.814   0.383  0.0930 -1.5356 -1.3265
  628SOL    HW2 2024   0.668   1.730   0.464  1.0344  2.0252  1.5346
  629SOL     OW 2025   0.815   2.289   3.115  0.1981  0.5894  0.3434
  629SOL    HW1 2026   0.879   2.264   3.182  1.2045  0.7360 -0.5355
  629SOL    HW2 2027   0.868   2.316   3.041 -0.8913  1.9715  0.0352
  630SOL     OW 2028   3.456   2.755   0.825  0.4940  0.0035 -0.0210
  630SOL    HW1 2029   3.439   2.828   0.765 -0.2128  0.6100  0.8747
  630SOL    HW2 2030   3.462   2.678   0.769 -2.0829  0.2361 -0.7373
  631SOL     OW 2031   0.774   2.574   0.499  0.3970  0.3693 -0.2355
  631SOL    HW1 2032   0.695   2.619   0.528  0.3604  2.2518 -2.8461
  631SOL    HW2 2033   0.832   2.645   0.469  2.1708 -1.0955 -0.4559
  632SOL     OW 2034   0.954   0.517   3.462  0.4842  0.8016 -0.5821
  632SOL    HW1 2035   0.914   0.449   3.516  3.2961  0.1182  0.7878
  632SOL    HW2 2036   0.934   0.490   3.372  0.3590 -1.0955 -0.0273
  633SOL     OW 2037   2.204   1.947   1.457 -0.0203  0.3146  0.1038
  633SOL    HW1 2038   2.166   2.006   1.392  0.9867 -0.3000 -1.0678
  633SOL    HW2 2039   2.152   1.867   1.450  0.8874 -0.2055 -0.8647
  634SOL     OW 2040   0.124   3.449   2.339 -0.1008 -0.0524  0.1488
  634SOL    HW1 2041   0.175   3.497   2.273 -0.1158  0.7069  0.6769
  634SOL    HW2 2042   0.173   3.461   2.421 -1.2371  0.8800  0.7076
  635SOL     OW 2043   0.132   1.059   3.410  0.0422 -0.3671  0.6022
  635SOL    HW1 2044   0.114   1.146   3.375  0.7736  1.0893  3.6068
  635SOL    HW2 2045   0.071   1.048   3.482  2.2787 -0.7833  2.5544
  636SOL     OW 2046   2.672   3.414   1.070  0.4431  0.1692 -0.4362
  636SOL    HW1 2047   2.676   3.343   1.134 -0.1502  1.7050  1.3834
  636SOL    HW2 2048   2.579   3.435   1.064  0.2174 -1.1504 -3.2933
  637SOL     OW 2049   0.115   3.568   0.193 -0.3067  0.7198  1.1003
  637SOL    HW1 2050   0.038   3.540   0.243 -1.2189  1.4313  0.1365
  637SOL    HW2 2051   0.081   3.631   0.129  1.1837  1.5517  1.0769
  638SOL     OW 2052   2.169   1.663   1.763 -0.0669  0.1546  0.5762
  638SOL    HW1 2053   2.177   1.757   1.779  2.0763  0.2075 -0.5265
  638SOL    HW2 2054   2.196   1.623   1.846  0.8317  0.5046  0.4611
  639SOL     OW 2055   3.403   2.785   3.464  0.3220  0.0079 -0.3419
  639SOL    HW1 2056   3.365   2.865   3.427 -0.2469 -0.0689  0.0518
  639SOL    HW2 2057   3.432   2.735   3.389 -0.8091 -0.1449 -0.6985
  640SOL     OW 2058   1.510   2.096   0.715 -0.5447 -0.7879  0.4933
  640SOL    HW1 2059   1.536   2.188   0.710 -0.0366 -0.9754 -2.3511
  640SOL    HW2 2060   1.430   2.096   0.767 -0.9058  1.3643  0.0381
  641SOL     OW 2061   2.114   2.903   3.154  0.1486  0.4794 -0.8841
  641SOL    HW1 2062   2.192   2.914   3.208 -1.3715  0.9003  1.3825
  641SOL    HW2 2063   2.110   2.981   3.100  0.9285  0.7811 -0.5100
  642SOL     OW 2064   1.894   0.618   0.331  0.3742 -0.2495  0.0437
  642SOL    HW1 2065   1.947   0.624   0.410 -1.1272 -0.0326  1.0756
  642SOL    HW2 2066   1.912   0.530   0.296  1.5204 -0.1110  0.2595
  643SOL     OW 2067   1.392   0.258   1.130  0.3827 -0.1565 -0.7631
  643SOL    HW1 2068   1.394   0.217   1.216  0.1934 -0.0954 -0.7293
  643SOL    HW2 2069   1.485   0.272   1.108  0.4102  1.2649  0.1252
  644SOL     OW 2070   1.786   1.580   2.275  0.1425 -0.7785  0.0863
  644SOL    HW1 2071   1.822   1.531   2.349  1.7456  0.7383  0.3794
  644SOL    HW2 2072   1.749   1.513   2.217  2.1118 -2.3250  0.5247
  645SOL     OW 2073   3.410   2.601   1.357  0.0412 -0.0209 -0.2478
  645SOL    HW1 2074   3.472   2.627   1.425  2.3368 -0.9532 -1.8578
  645SOL    HW2 2075   3.346   2.672   1.355  0.6245  0.6600  1.9555
  646SOL     OW 2076   2.693   3.524   0.561 -0.2896  0.3767 -0.1508
  646SOL    HW1 2077   2.780   3.484   0.552 -0.5993 -0.1989 -0.6213
  646SOL    HW2 2078   2.664   3.538   0.471 -1.3821 -0.9559 -0.0399
  647SOL     OW 2079   1.537   1.901   0.936  0.0535 -0.2185 -0.0232
  647SOL    HW1 2080   1.488   1.983   0.945  0.7259  0.1625  0.2173
  647SOL    HW2 2081   1.600   1.903   1.008  0.2632 -0.8158 -0.1894
  648SOL     OW 2082   1.324   1.305   0.554 -0.3026  0.5465  0.1026
  648SOL    HW1 2083   1.230   1.301   0.568 -0.2638 -1.2714  0.1310
  648SOL    HW2 2084   1.361   1.323   0.641 -0.5995  1.1753  0.1059
  649SOL     OW 2085   3.063   2.304   2.875  0.7413  0.3818 -0.5993
  649SOL    HW1 2086   3.031   2.352   2.799  0.4069 -0.6248 -1.1113
  649SOL    HW2 2087   3.077   2.215   2.844 -0.2358 -0.2749  0.7115
  650SOL     OW 2088   0.900   0.109   1.195  0.4819  0.1405 -0.0442
  650SOL    HW1 2089   0.922   0.084   1.105  1.3488 -1.8182  0.6420
  650SOL    HW2 2090   0.822   0.057   1.216  1.7056 -1.3415  1.0818
  651SOL     OW 2091   0.279   0.008   1.662 -0.2554  0.3527  0.0740
  651SOL    HW1 2092   0.281   0.017   1.567  0.4564 -2.4386 -0.2699
  651SOL    HW2 2093   0.335   0.078   1.694 -0.8044  1.5710 -1.5085
  652SOL     OW 2094   2.487   3.291   3.576 -0.0149  0.2454 -0.0316
  652SOL    HW1 2095   2.451   3.206   3.551  2.2432 -0.0041 -2.9519
  652SOL    HW2 2096   2.434   3.354   3.527 -3.1468  0.9985  3.7518
  653SOL     OW 2097   3.200   2.426   0.733 -0.1457 -0.1404  0.1314
  653SOL    HW1 2098   3.178   2.352   0.789 -0.8166  1.0872  1.5332
  653SOL    HW2 2099   3.153   2.500   0.770  2.3675  1.5421  0.2453
  654SOL     OW 2100   1.385   3.476   1.688 -0.3569 -0.2674 -0.1375
  654SOL    HW1 2101   1.421   3.564   1.676 -1.4087  0.4462  1.5578
  654SOL    HW2 2102   1.333   3.482   1.768  1.5020 -3.0378  1.4836
  655SOL     OW 2103   3.230   0.295   3.572  0.2652 -0.3894 -0.2524
  655SOL    HW1 2104   3.189   0.257   3.495 -0.8392 -0.7960  0.5007
  655SOL    HW2 2105   3.168   0.362   3.602  2.0993  1.9985 -1.4700
  656SOL     OW 2106   2.593   0.823   0.478 -0.0881  0.6092 -0.2679
  656SOL    HW1 2107   2.550   0.907   0.497  0.7185  0.7896  0.8016
  656SOL    HW2 2108   2.684   0.836   0.502  0.1946 -0.3730 -0.7438
  657SOL     OW 2109   1.677   0.815   1.364 -0.0816 -0.5813 -0.2918
  657SOL    HW1 2110   1.712   0.809   1.275 -0.8863  0.7757 -0.7313
  657SOL    HW2 2111   1.645   0.904   1.371  1.3785 -0.1540  1.9300
  658SOL     OW 2112   2.334   0.209   0.020  0.1508 -0.5139 -0.0003
  658SOL    HW1 2113   2.270   0.209   0.092  1.0642 -1.1255  0.8456
  658SOL    HW2 2114   2.294   0.153  -0.047  0.1161 -1.5303  0.8371
  659SOL     OW 2115   1.493   1.243   2.286 -0.0078  0.4608 -0.2191
  659SOL    HW1 2116   1.402   1.271   2.294 -0.0335  0.2017  0.5028
  659SOL    HW2 2117   1.512   1.200   2.370  1.0608  1.3278  0.0073
  660SOL     OW 2118   3.400   2.258   2.476  0.6455  0.7360  0.2181
  660SOL    HW1 2119   3.337   2.186   2.482  0.6468  0.6221 -0.9084
  660SOL    HW2 2120   3.454   2.249   2.554  1.7821 -1.5796 -0.7382
  661SOL     OW 2121   2.026   0.026   0.469  0.0397 -0.3944 -0.9210
  661SOL    HW1 2122   2.021   0.119   0.446 -1.2993 -0.2644 -0.2145
  661SOL    HW2 2123   1.940  -0.009   0.446 -0.1187 -1.0332  0.5679
  662SOL     OW 2124   0.713   3.557   2.284 -0.4924 -0.0579  0.1541
  662SOL    HW1 2125   0.620   3.548   2.266 -0.5602 -2.9760  1.4477
  662SOL    HW2 2126   0.755   3.544   2.198 -1.2216 -0.4431 -0.1564
  663SOL     OW 2127   3.661   1.385   1.002 -0.1850 -0.2930 -0.3372
  663SOL    HW1 2128   3.678   1.376   0.908 -0.7344  1.0426 -0.5986
  663SOL    HW2 2129   3.629   1.475   1.012 -1.7929 -0.9360  0.8839
  664SOL     OW 2130   1.477   1.578   3.178 -0.3232  0.3123 -0.1380
  664SOL    HW1 2131   1.414   1.525   3.131 -0.1630  0.9199 -1.0675
  664SOL    HW2 2132   1.466   1.553   3.270  0.9924 -2.6366 -0.6695
  665SOL     OW 2133   1.660   3.681   2.101 -0.1987  0.0717 -0.2139
  665SOL    HW1 2134   1.647   3.598   2.146 -0.8036 -0.1436 -0.7637
  665SOL    HW2 2135   1.688   3.742   2.170 -0.1835 -0.4776  0.2700
  666SOL     OW 2136   2.253   0.854   2.976  0.9341  0.0166 -0.0800
  666SOL    HW1 2137   2.210   0.938   2.957 -1.4664 -0.9217  0.8804
  666SOL    HW2 2138   2.188   0.788   2.955  2.6817 -1.6457 -0.5244
  667SOL     OW 2139   3.542   2.291   2.706 -0.1282  0.3836 -0.6757
  667SOL    HW1 2140   3.609   2.274   2.772 -1.9526  0.2312  1.2505
  667SOL    HW2 2141   3.524   2.385   2.714 -1.0106  0.1898 -0.2681
  668SOL     OW 2142   3.007   0.295   0.091  0.1464  0.3050  0.0308
  668SOL    HW1 2143   3.054   0.283   0.174  0.3054 -3.4941 -0.4288
  668SOL    HW2 2144   2.936   0.355   0.112  2.2824  2.3865  1.9385
  669SOL     OW 2145   1.085   1.921   1.164 -1.0189 -0.0511  0.9069
  669SOL    HW1 2146   1.119   1.980   1.231 -0.8254  0.4167  0.4047
  669SOL    HW2 2147   1.060   1.842   1.212 -0.1063 -0.0428  1.4256
  670SOL     OW 2148   2.586   0.516   2.042  0.1099  0.1211  0.0361
  670SOL    HW1 2149   2.507   0.463   2.040 -0.7173  1.0895  2.8848
  670SOL    HW2 2150   2.638   0.479   2.114  0.4146  1.9007  0.7667
  671SOL     OW 2151   2.982   3.482   3.501 -0.4239  0.3197 -0.3092
  671SOL    HW1 2152   2.917   3.412   3.506  0.3612 -0.7974 -3.4729
  671SOL    HW2 2153   3.045   3.461   3.570 -0.3138 -2.0876 -1.0390
  672SOL     OW 2154   2.536   0.276   3.510 -0.4810  0.5569  0.3668
  672SOL    HW1 2155   2.626   0.277   3.541 -0.4104 -0.5766  0.2660
  672SOL    HW2 2156   2.484   0.308   3.584 -0.0385  0.8195  0.5650
  673SOL     OW 2157   1.828   1.866   2.366  0.5041 -0.6306 -0.6171
  673SOL    HW1 2158   1.810   1.803   2.296  0.4826 -0.2400 -0.9706
  673SOL    HW2 2159   1.755   1.929   2.361  0.8763 -0.2003 -0.7136
  674SOL     OW 2160   2.241   2.301   2.079  0.5182 -0.1476  0.5508
  674SOL    HW1 2161   2.163   2.247   2.065  0.8409 -0.4944  0.0163
  674SOL    HW2 2162   2.294   2.250   2.140  1.0522 -0.6915 -0.3469
  675SOL     OW 2163   3.057   2.212   2.443 -0.3398  0.2506 -0.1431
  675SOL    HW1 2164   3.024   2.137   2.492  0.4355 -0.2164 -0.3167
  675SOL    HW2 2165   3.069   2.179   2.354 -0.1354  0.6135 -0.2518
  676SOL     OW 2166   3.010   3.467   0.916  0.3562 -0.0695  0.1563
  676SOL    HW1 2167   2.923   3.437   0.889 -0.7195  1.7931  1.2923
  676SOL    HW2 2168   3.059   3.387   0.932 -2.1388 -1.3020  2.4317
  677SOL     OW 2169   1.759   1.600   0.123 -0.4297  0.2026 -0.8459
  677SOL    HW1 2170   1.698   1.605   0.196 -0.0507 -1.1576 -0.4216
  677SOL    HW2 2171   1.807   1.683   0.127 -1.1569  0.6142 -0.2364
  678SOL     OW 2172   0.299   2.288   2.266 -0.4271  0.1283 -0.1854
  678SOL    HW1 2173   0.353   2.211   2.247 -0.0097  0.3764 -0.0408
  678SOL    HW2 2174   0.211   2.264   2.240 -0.0926  0.0233 -1.2710
  679SOL     OW 2175   2.422   1.450   0.214  0.5072  0.0992  0.6557
  679SOL    HW1 2176   2.448   1.514   0.147 -0.5652 -1.8589 -1.7928
  679SOL    HW2 2177   2.442   1.365   0.174 -2.1614 -1.2331  1.9274
  680SOL     OW 2178   2.935   1.915   0.577  0.3718  0.0712 -0.2209
  680SOL    HW1 2179   2.864   1.930   0.514  0.2441 -0.1317 -0.1246
  680SOL    HW2 2180   2.909   1.836   0.625  0.3839  0.3241  0.2068
  681SOL     OW 2181   2.115   0.262   3.140 -0.1597 -0.0639 -0.1909
  681SOL    HW1 2182   2.190   0.316   3.112 -0.9081 -0.1744 -2.7050
  681SOL    HW2 2183   2.145   0.218   3.219  1.5290  1.7777  0.2819
  682SOL     OW 2184   2.359   3.258   0.824 -0.4031  0.3714 -0.3473
  682SOL    HW1 2185   2.342   3.352   0.826 -1.3399  0.2009  0.3933
  682SOL    HW2 2186   2.439   3.249   0.772  0.1036  1.6346  0.1858
  683SOL     OW 2187   1.253   0.448   3.435  0.0317 -0.9200  0.4203
  683SOL    HW1 2188   1.291   0.444   3.522 -0.3476  2.4817  0.8644
  683SOL    HW2 2189   1.163   0.417   3.447 -0.2575  0.2437  1.4445
  684SOL     OW 2190   3.028   0.093   2.907 -0.1467 -0.5959  0.6018
  684SOL    HW1 2191   3.042   0.160   2.840 -2.1241 -1.6731 -0.9906
  684SOL    HW2 2192   2.938   0.105   2.936 -0.1779 -1.8429  1.1273
  685SOL     OW 2193   2.434   1.701   3.300 -0.1488 -0.1252  0.2248
  685SOL    HW1 2194   2.451   1.752   3.221 -1.1348 -0.6550 -0.3588
  685SOL    HW2 2195   2.343   1.671   3.290 -1.1004  1.6545  2.5942
  686SOL     OW 2196   1.322   2.408   0.106  0.4534 -0.1046 -0.6123
  686SOL    HW1 2197   1.231   2.413   0.079 -0.1821  1.2170  1.5150
  686SOL    HW2 2198   1.361   2.491   0.079  0.5812  0.0146 -0.0717
  687SOL     OW 2199   1.397   1.815   0.624 -0.4858 -0.0341 -0.7717
  687SOL    HW1 2200   1.383   1.901   0.583 -1.9013 -0.4213 -1.1348
  687SOL    HW2 2201   1.492   1.809   0.634 -0.3692  1.7705 -0.3286
  688SOL     OW 2202   3.051   0.656   1.816  0.1948  0.1183 -0.1406
  688SOL    HW1 2203   3.063   0.703   1.899  1.3822  1.5928 -1.1045
  688SOL    HW2 2204   2.981   0.593   1.835  1.7770 -1.0277  2.5750
  689SOL     OW 2205   0.049   2.523   2.437  0.0346 -0.3700  0.5182
  689SOL    HW1 2206   0.060   2.439   2.481 -1.6205  0.2156  2.2366
  689SOL    HW2 2207  -0.025   2.510   2.377  0.2366 -0.3251  0.2573
  690SOL     OW 2208   2.771   3.126   3.347  0.1590 -0.3342  0.0508
  690SOL    HW1 2209   2.683   3.088   3.340  0.9660 -1.9681 -2.9601
  690SOL    HW2 2210   2.767   3.183   3.424 -3.0545 -1.5539  0.9230
  691SOL     OW 2211   0.828   3.476   2.044  0.3465 -0.2823  0.2085
  691SOL    HW1 2212   0.822   3.489   1.949  3.0286  2.1027  0.2413
  691SOL    HW2 2213   0.879   3.395   2.054  2.5443  0.9490 -0.5106
  692SOL     OW 2214   2.786   1.614   1.084  0.1954  0.0114  0.0012
  692SOL    HW1 2215   2.848   1.662   1.140  0.3690  0.1288 -0.2903
  692SOL    HW2 2216   2.714   1.676   1.071  0.6137  0.3505 -0.7211
  693SOL     OW 2217   0.099   2.147   0.500 -0.0070  0.1247  0.8902
  693SOL    HW1 2218   0.063   2.074   0.450 -0.2006 -0.1970  1.4949
  693SOL    HW2 2219   0.190   2.122   0.518  0.3897  0.7150 -0.2058
  694SOL     OW 2220   2.069   1.628   2.815  0.3629  0.4372  0.0096
  694SOL    HW1 2221   2.117   1.708   2.835 -2.5635  1.9224  1.7493
  694SOL    HW2 2222   2.066   1.625   2.719  1.2211  1.9496 -0.0937
  695SOL     OW 2223   2.774   3.476   2.981  0.1667 -0.1136  0.3786
  695SOL    HW1 2224   2.851   3.474   3.038  1.8528  1.7273 -1.6203
  695SOL    HW2 2225   2.700   3.488   3.040  1.4212 -1.4620  2.3571
  696SOL     OW 2226   1.158   2.729   1.428 -0.2107  0.1897 -0.0935
  696SOL    HW1 2227   1.162   2.822   1.409 -0.4170  0.3219  0.4902
  696SOL    HW2 2228   1.154   2.687   1.342 -2.2054  0.8138 -0.3533
  697SOL     OW 2229   3.437   1.548   0.227 -0.2029  0.1913  0.4314
  697SOL    HW1 2230   3.424   1.505   0.312  2.1177  1.1546  1.3584
  697SOL    HW2 2231   3.469   1.635   0.249 -1.7569  1.3173 -1.4473
  698SOL     OW 2232   2.582   2.546   2.769 -0.3046  0.0998 -0.0979
  698SOL    HW1 2233   2.518   2.485   2.730 -0.6388  1.3846 -1.6966
  698SOL    HW2 2234   2.654   2.548   2.706  0.8500 -0.4802  1.1529
  699SOL     OW 2235   0.163   2.143   2.929  1.2906  0.0529 -0.0998
  699SOL    HW1 2236   0.217   2.222   2.927 -1.7298  2.2977 -1.8019
  699SOL    HW2 2237   0.120   2.146   3.015  1.2814  0.1739 -0.1081
  700SOL     OW 2238   2.498   3.269   3.260  0.2303 -0.7822  0.3828
  700SOL    HW1 2239   2.446   3.329   3.315  0.2937 -1.2108  0.9148
  700SOL    HW2 2240   2.557   3.327   3.212  2.0523 -0.5590  2.7447
  701SOL     OW 2241   2.876   3.518   2.384  0.1201  0.7771  0.3281
  701SOL    HW1 2242   2.938   3.514   2.311 -0.2180  3.3776 -0.1874
  701SOL    HW2 2243   2.873   3.610   2.409 -1.6820  0.3497  1.9846
  702SOL     OW 2244   3.579   0.781   0.591 -0.8640  1.0136 -0.7996
  702SOL    HW1 2245   3.670   0.810   0.601 -0.8607  0.0949  3.7528
  702SOL    HW2 2246   3.582   0.687   0.610 -3.0796  1.5868  3.3494
  703SOL     OW 2247   3.449   1.200   1.346  0.9956  0.2575 -0.0982
  703SOL    HW1 2248   3.446   1.170   1.255  0.6192 -0.1446  0.0459
  703SOL    HW2 2249   3.493   1.285   1.341 -1.6770  1.7120 -1.0664
  704SOL     OW 2250   0.996   0.724   0.243 -0.2101 -0.0085  0.0349
  704SOL    HW1 2251   1.005   0.816   0.218  1.1691 -0.4672 -1.3302
  704SOL    HW2 2252   1.040   0.719   0.328  0.1148  0.5051 -0.0946
  705SOL     OW 2253   3.689   0.224   3.477  0.5968  0.0374  0.4233
  705SOL    HW1 2254   3.652   0.137   3.491 -0.9910  0.3104 -1.6334
  705SOL    HW2 2255   3.639   0.260   3.404  1.0214  2.7956  1.3665
  706SOL     OW 2256   1.093   2.094   1.734 -0.5259 -0.3624  0.0430
  706SOL    HW1 2257   1.033   2.153   1.689 -1.8308 -1.0434  0.7909
  706SOL    HW2 2258   1.082   2.115   1.827  0.6854 -0.2661  0.1823
  707SOL     OW 2259   2.448   0.340   2.919 -0.1952 -0.7183 -1.0579
  707SOL    HW1 2260   2.357   0.367   2.930 -0.0229 -0.1667 -0.9720
  707SOL    HW2 2261   2.499   0.420   2.930  0.2378 -0.8204 -2.1295
  708SOL     OW 2262   2.122   3.104   2.561  0.0212  0.2309  0.4311
  708SOL    HW1 2263   2.094   3.154   2.637  1.4440  0.5837  0.7629
  708SOL    HW2 2264   2.205   3.144   2.536  1.1500 -1.8235  0.6193
  709SOL     OW 2265   2.791   0.747   2.044  0.2105  0.0437 -0.0323
  709SOL    HW1 2266   2.750   0.665   2.073  0.9570 -0.2490  0.2151
  709SOL    HW2 2267   2.722   0.793   1.996 -0.0935 -0.9182 -0.5367
  710SOL     OW 2268   3.577   0.740   2.004  0.3288  0.5092  0.3543
  710SOL    HW1 2269   3.645   0.697   1.951  0.5121  1.5135 -0.2484
  710SOL    HW2 2270   3.560   0.678   2.075  2.3615  0.5012  0.9208
  711SOL     OW 2271   2.594   2.287   1.680 -0.1469 -0.5633  0.0032
  711SOL    HW1 2272   2.662   2.271   1.614  0.8470  0.2509  0.7935
  711SOL    HW2 2273   2.612   2.375   1.713 -0.0903 -1.2373  1.9334
  712SOL     OW 2274   2.168   3.483   0.354  0.0367  0.3204 -0.0810
  712SOL    HW1 2275   2.223   3.427   0.299 -0.0581  0.8298 -0.7048
  712SOL    HW2 2276   2.103   3.519   0.294 -1.5858 -1.0185  0.8126
  713SOL     OW 2277   1.085   0.234   3.253  0.3213  0.0597 -0.5681
  713SOL    HW1 2278   1.010   0.284   3.220  0.9357  0.6641 -1.0735
  713SOL    HW2 2279   1.057   0.204   3.340 -0.1246  1.1411 -0.3163
  714SOL     OW 2280   0.889   0.501   0.592 -0.1146 -0.2531 -0.5869
  714SOL    HW1 2281   0.943   0.450   0.531  1.0170 -1.2167  1.1354
  714SOL    HW2 2282   0.949   0.566   0.629 -0.6427 -0.0190 -0.1193
  715SOL     OW 2283   3.092   1.253   0.665 -0.0632  0.3630 -0.1441
  715SOL    HW1 2284   3.181   1.252   0.632 -0.7448 -1.4585 -2.1146
  715SOL    HW2 2285   3.043   1.305   0.602 -0.8035 -0.5457 -0.3375
  716SOL     OW 2286   1.434   2.493   2.768 -0.3125 -0.3133  0.0370
  716SOL    HW1 2287   1.495   2.419   2.759  1.1122  0.7695  0.4175
  716SOL    HW2 2288   1.443   2.520   2.859 -1.6466 -0.3222  0.2002
  717SOL     OW 2289   2.427   2.889   1.084 -0.1376  0.1839 -0.1635
  717SOL    HW1 2290   2.387   2.968   1.122 -1.2205  0.1554 -1.1726
  717SOL    HW2 2291   2.400   2.892   0.992  0.6277 -0.8610 -0.4254
  718SOL     OW 2292   3.371   0.146   0.040 -0.3766  0.4548 -0.1793
  718SOL    HW1 2293   3.331   0.075   0.091  0.6047 -0.4272 -0.5961
  718SOL    HW2 2294   3.299   0.180  -0.013 -0.4334 -1.7741 -1.6778
  719SOL     OW 2295   1.296   2.346   1.714 -0.0475 -0.0535 -0.2260
  719SOL    HW1 2296   1.255   2.295   1.783  1.2994  0.6923  1.1839
  719SOL    HW2 2297   1.225   2.368   1.654 -1.4270 -0.0080  1.3678
  720SOL     OW 2298   0.281   0.769   3.072 -0.3683 -0.3087  0.1304
  720SOL    HW1 2299   0.251   0.846   3.120  0.6585  1.3215 -1.6956
  720SOL    HW2 2300   0.235   0.774   2.988 -0.9030 -2.1861  0.2572
  721SOL     OW 2301   1.981   0.696   0.807  0.5368  0.0218  0.7600
  721SOL    HW1 2302   2.072   0.709   0.833  0.5457  0.5966  0.4622
  721SOL    HW2 2303   1.931   0.755   0.863  0.7325  2.9024 -1.7827
  722SOL     OW 2304   0.382   1.943   0.031  0.2476 -0.0594 -1.1926
  722SOL    HW1 2305   0.329   1.921   0.107  1.8312 -2.2395 -0.6429
  722SOL    HW2 2306   0.437   2.015   0.060  0.7268 -0.7682 -0.3199
  723SOL     OW 2307   0.429   0.481   2.927 -0.4648  0.7988  0.0618
  723SOL    HW1 2308   0.420   0.386   2.914  1.9950  0.3618  0.9913
  723SOL    HW2 2309   0.394   0.496   3.015 -0.0285  0.5631  0.2834
  724SOL     OW 2310   2.607   1.036   3.673 -0.0051  0.6212 -0.2095
  724SOL    HW1 2311   2.644   1.088   3.602  0.5022 -1.7406 -1.7645
  724SOL    HW2 2312   2.681   1.016   3.729 -0.0930  1.0263  0.0588
  725SOL     OW 2313   1.751   0.298   0.331  0.8580  0.4591 -0.5551
  725SOL    HW1 2314   1.795   0.325   0.249  2.7352  3.6533  1.2949
  725SOL    HW2 2315   1.822   0.291   0.394 -0.8299  1.2610  1.5369
  726SOL     OW 2316   0.619   1.928   0.745 -0.6639 -0.4128 -0.0190
  726SOL    HW1 2317   0.671   1.856   0.709 -1.2374 -0.6703 -0.3579
  726SOL    HW2 2318   0.681   2.000   0.755 -0.3158 -0.5927 -0.7627
  727SOL     OW 2319   3.300   0.624   3.166  0.0780  0.2649  0.2773
  727SOL    HW1 2320   3.302   0.551   3.104 -1.1484  0.7010 -0.3292
  727SOL    HW2 2321   3.390   0.656   3.170  0.5328 -0.9555  0.1738
  728SOL     OW 2322   2.886   2.354   2.207 -0.1906  0.0001 -0.3285
  728SOL    HW1 2323   2.914   2.371   2.117 -1.5567 -2.1376 -1.2295
  728SOL    HW2 2324   2.802   2.310   2.198 -1.2863  1.3928  2.0867
  729SOL     OW 2325   3.108   3.175   2.138  0.2679  0.2471 -0.1934
  729SOL    HW1 2326   3.149   3.090   2.124 -3.3499 -1.5471 -0.8647
  729SOL    HW2 2327   3.083   3.205   2.051 -3.5868 -0.9024  0.3229
  730SOL     OW 2328   2.221   0.631   0.913  0.5930 -0.3993 -0.6481
  730SOL    HW1 2329   2.304   0.677   0.903  0.2507  0.0828 -1.4397
  730SOL    HW2 2330   2.234   0.547   0.869  0.8605 -0.5966 -0.1986
  731SOL     OW 2331   0.462   3.507   1.016  0.2899 -0.8434 -0.4846
  731SOL    HW1 2332   0.555   3.524   1.028  0.4751  0.1920 -2.8067
  731SOL    HW2 2333   0.421   3.593   1.027 -0.1547 -0.9488 -1.2435
  732SOL     OW 2334   2.129   2.858   1.635 -0.4031  0.1563  0.4121
  732SOL    HW1 2335   2.118   2.944   1.593  0.7964  0.9220  1.5622
  732SOL    HW2 2336   2.169   2.804   1.567 -2.3687  0.0799 -0.7505
  733SOL     OW 2337   1.811   3.007   1.338 -0.0649  0.0692 -0.0120
  733SOL    HW1 2338   1.753   2.965   1.274 -0.2649 -1.5292  1.1275
  733SOL    HW2 2339   1.753   3.028   1.411  0.7741 -1.9463  1.3283
  734SOL     OW 2340   1.012   1.009   3.687 -0.5024 -0.2002 -0.2040
  734SOL    HW1 2341   1.009   0.918   3.656  1.3085 -1.2636  2.3125
  734SOL    HW2 2342   0.921   1.031   3.705 -0.8736 -2.1750  0.6457
  735SOL     OW 2343   0.042   3.141   1.007 -0.1528 -0.1243  1.2838
  735SOL    HW1 2344   0.066   3.051   1.031 -0.5526 -0.4977  0.3391
  735SOL    HW2 2345   0.104   3.163   0.937 -0.5339  0.0510  0.9984
  736SOL     OW 2346   2.320   1.271   2.758 -0.5600  0.2838 -0.1240
  736SOL    HW1 2347   2.401   1.223   2.741 -0.6968 -0.3369  0.8534
  736SOL    HW2 2348   2.282   1.287   2.672 -0.8155 -1.9111 -0.4655
  737SOL     OW 2349   0.822   0.829   2.186 -0.2078 -0.1014 -0.5378
  737SOL    HW1 2350   0.876   0.776   2.127  0.8552  1.1123 -0.7120
  737SOL    HW2 2351   0.769   0.884   2.128 -1.5984 -1.2121 -0.3654
  738SOL     OW 2352   0.701   2.815   1.128 -0.1430  0.5492  0.2576
  738SOL    HW1 2353   0.744   2.880   1.183 -0.0576  0.2453  0.5554
  738SOL    HW2 2354   0.712   2.732   1.175  2.0861 -0.1713 -1.3540
  739SOL     OW 2355   2.634   1.123   1.009 -0.0104  0.0782 -1.0468
  739SOL    HW1 2356   2.695   1.111   1.081  0.3016 -0.5354 -1.4097
  739SOL    HW2 2357   2.549   1.136   1.051 -0.2378 -2.4422 -0.5754
  740SOL     OW 2358   3.371   3.146   0.453 -0.2560  0.2346 -0.3577
  740SOL    HW1 2359   3.398   3.234   0.479 -1.0665  0.5594 -0.6049
  740SOL    HW2 2360   3.297   3.160   0.395 -1.9521 -0.6709  1.4674
  741SOL     OW 2361   3.218   3.481   3.662 -0.0748  0.5476 -0.7087
  741SOL    HW1 2362   3.241   3.563   3.618  0.6994  0.8026  0.1488
  741SOL    HW2 2363   3.255   3.490   3.750  0.1687 -0.7970 -0.6601
  742SOL     OW 2364   0.052   1.299   0.403  0.0821  0.0513  0.3014
  742SOL    HW1 2365   0.139   1.320   0.372 -0.5348  1.3956 -0.5957
  742SOL    HW2 2366   0.066   1.261   0.490  1.5496  0.2012  0.1504
  743SOL     OW 2367   0.990   2.052   2.928  0.2830  0.7159 -0.4118
  743SOL    HW1 2368   1.056   2.067   2.996 -1.4257 -1.0962  1.7980
  743SOL    HW2 2369   0.907   2.058   2.974 -0.9672 -0.4760 -2.3888
  744SOL     OW 2370   1.189   3.223   3.514  0.1839 -0.2994  0.0454
  744SOL    HW1 2371   1.224   3.156   3.454 -0.6627  1.0600 -2.0885
  744SOL    HW2 2372   1.225   3.305   3.482 -1.9840  0.7277  0.0309
  745SOL     OW 2373   3.111   2.844   1.892 -0.4794 -0.4762 -0.2644
  745SOL    HW1 2374   3.028   2.878   1.925 -0.8242 -2.2345  0.8781
  745SOL    HW2 2375   3.177   2.877   1.954 -0.8074 -1.7318  0.8232
  746SOL     OW 2376   0.060   3.075   0.625  0.4911 -0.5885  0.5394
  746SOL    HW1 2377   0.095   3.003   0.677  2.6459  0.1858  0.2737
  746SOL    HW2 2378   0.065   3.151   0.682 -1.9077 -0.6016  0.8674
  747SOL     OW 2379   0.244   1.563   1.768 -0.3223 -0.5244 -0.5744
  747SOL    HW1 2380   0.243   1.568   1.864 -3.8945 -0.2455 -0.4737
  747SOL    HW2 2381   0.328   1.601   1.742 -0.6473  2.6779  2.3611
  748SOL     OW 2382   2.890   2.907   2.059 -0.2436 -0.2994 -0.2485
  748SOL    HW1 2383   2.929   2.853   2.128  0.2509 -0.5149 -0.6875
  748SOL    HW2 2384   2.812   2.859   2.032 -0.5956 -0.0758  0.3493
  749SOL     OW 2385   3.370   0.235   0.408  0.3485  0.4725  0.4464
  749SOL    HW1 2386   3.307   0.304   0.387  1.4716  1.2582 -0.5399
  749SOL    HW2 2387   3.423   0.226   0.328  0.4463 -1.3080  0.6858
  750SOL     OW 2388   3.523   0.948   2.160 -0.1777  0.3210 -0.0150
  750SOL    HW1 2389   3.562   0.882   2.102  2.6104  1.5056  0.3477
  750SOL    HW2 2390   3.446   0.978   2.113 -2.1756 -3.7494  0.2199
  751SOL     OW 2391   0.708   1.473   3.741  0.0165 -0.1098  0.1440
  751SOL    HW1 2392   0.706   1.454   3.647 -0.6634  0.1001  0.1139
  751SOL    HW2 2393   0.697   1.568   3.746 -1.4435 -0.2716  0.4830
  752SOL     OW 2394   0.729   2.621   2.599  0.2913 -0.0986 -0.9598
  752SOL    HW1 2395   0.675   2.652   2.526  0.3845 -1.4260 -1.6332
  752SOL    HW2 2396   0.756   2.700   2.645 -1.6463  0.6589 -1.0226
  753SOL     OW 2397   2.571   3.710   3.377 -0.2571 -0.3978 -0.4308
  753SOL    HW1 2398   2.498   3.753   3.421 -1.0829 -0.6699 -1.4845
  753SOL    HW2 2399   2.619   3.665   3.447 -0.8813  0.0957  0.3258
  754SOL     OW 2400   2.500   1.675   2.766  0.6021 -0.1924  0.1298
  754SOL    HW1 2401   2.547   1.707   2.688 -1.3490 -1.4605 -1.6857
  754SOL    HW2 2402   2.428   1.736   2.778  0.2091 -0.6588  0.1952
  755SOL     OW 2403   1.026   2.149   2.037  0.4965  0.4917  0.4312
  755SOL    HW1 2404   1.012   2.058   2.062  1.3063  0.7838  2.0897
  755SOL    HW2 2405   1.077   2.186   2.109 -0.7032  2.5401  0.2982
  756SOL     OW 2406   2.065   3.582   2.753 -0.1100  0.5967 -0.0571
  756SOL    HW1 2407   2.107   3.658   2.794 -0.2430  0.6564 -0.0314
  756SOL    HW2 2408   1.973   3.590   2.777  0.2127 -0.7594  1.8240
  757SOL     OW 2409   2.653   0.500   1.599 -0.3837  0.0382 -0.2950
  757SOL    HW1 2410   2.639   0.540   1.686  1.6800 -1.2032  0.6812
  757SOL    HW2 2411   2.582   0.437   1.590 -0.3361 -0.1756  0.7154
  758SOL     OW 2412   3.555   0.115   2.420 -0.2458  0.2546  0.1083
  758SOL    HW1 2413   3.647   0.103   2.446  0.8661  0.4877 -3.2299
  758SOL    HW2 2414   3.531   0.031   2.381 -1.1267  0.5429  0.0104
  759SOL     OW 2415   2.504   2.595   0.319 -0.3647 -0.8150  0.0077
  759SOL    HW1 2416   2.476   2.671   0.370 -1.2540 -1.6700  0.8197
  759SOL    HW2 2417   2.558   2.632   0.249 -0.8337  0.5709  0.3499
  760SOL     OW 2418   2.027   1.854   1.095 -0.4169 -0.6203  0.1898
  760SOL    HW1 2419   2.086   1.922   1.127  0.6307 -0.4463 -1.9193
  760SOL    HW2 2420   1.942   1.875   1.134 -0.6234  3.0682 -1.7777
  761SOL     OW 2421   3.571   0.843   1.539 -0.2041  0.3367 -0.0657
  761SOL    HW1 2422   3.486   0.827   1.579 -0.1526  0.2061 -0.0109
  761SOL    HW2 2423   3.565   0.801   1.453  0.4770 -1.3429  0.6757
  762SOL     OW 2424   3.712   0.216   0.746 -0.4035 -0.5484 -0.5456
  762SOL    HW1 2425   3.711   0.310   0.728 -0.7799 -0.2422  0.9547
  762SOL    HW2 2426   3.759   0.208   0.829  0.1959 -1.7628 -0.9834
  763SOL     OW 2427   0.140   2.717   2.600 -0.7975 -0.1241  0.0988
  763SOL    HW1 2428   0.095   2.670   2.530 -0.9281  2.7633 -1.9330
  763SOL    HW2 2429   0.231   2.720   2.572 -0.8592  1.1074 -0.0272
  764SOL     OW 2430   1.842   3.697   3.012  0.1286  0.0871  0.4556
  764SOL    HW1 2431   1.937   3.698   3.012  0.1721  0.1035 -1.6314
  764SOL    HW2 2432   1.817   3.790   3.012  0.2673  0.2482 -2.9536
  765SOL     OW 2433   1.719   1.632   1.859 -0.6237  0.4640  0.0398
  765SOL    HW1 2434   1.648   1.571   1.840 -0.1347 -0.4299  0.9740
  765SOL    HW2 2435   1.722   1.636   1.955  3.0927 -2.6980  0.3486
  766SOL     OW 2436   0.391   1.780   0.420 -0.3768  0.8203  0.2620
  766SOL    HW1 2437   0.363   1.843   0.486  0.2321  1.7125 -0.3187
  766SOL    HW2 2438   0.367   1.695   0.456 -0.3892  1.3222  1.4619
  767SOL     OW 2439   2.885   0.592   3.593 -0.3703  0.4603  0.7844
  767SOL    HW1 2440   2.867   0.606   3.500 -0.0487  1.3087  0.8426
  767SOL    HW2 2441   2.808   0.629   3.638 -2.2282 -3.0087  0.7863
  768SOL     OW 2442   1.012   1.310   2.066  0.5368  0.3406 -0.3309
  768SOL    HW1 2443   1.018   1.215   2.066 -2.8158  0.0052 -1.6017
  768SOL    HW2 2444   0.991   1.332   2.157  0.2059 -0.2731 -0.2511
  769SOL     OW 2445   1.003   0.762   3.609  0.5508 -0.4030  0.2854
  769SOL    HW1 2446   0.974   0.729   3.694  1.0593  0.3480  0.7607
  769SOL    HW2 2447   0.988   0.689   3.548  0.5021 -1.0626  1.0792
  770SOL     OW 2448   1.323   0.484   3.168 -0.3754 -0.0338 -0.1003
  770SOL    HW1 2449   1.246   0.541   3.168  0.3965  1.0349 -0.4650
  770SOL    HW2 2450   1.317   0.437   3.251 -0.4320  1.4332  0.7766
  771SOL     OW 2451   3.277   2.430   2.314 -0.4252  0.2789  0.3353
  771SOL    HW1 2452   3.187   2.405   2.293 -0.5237  1.1077 -0.3016
  771SOL    HW2 2453   3.302   2.373   2.387 -0.6972 -1.5228 -0.8920
  772SOL     OW 2454   1.531   0.245   2.369 -0.2668 -0.0040  0.3001
  772SOL    HW1 2455   1.453   0.191   2.355 -1.1504  1.2344  0.2910
  772SOL    HW2 2456   1.501   0.335   2.355  1.4024  0.4469 -0.7203
  773SOL     OW 2457   2.808   2.354   1.523  0.6240 -0.0053 -0.4851
  773SOL    HW1 2458   2.863   2.315   1.455 -0.4181 -2.7527  0.1118
  773SOL    HW2 2459   2.864   2.357   1.600  0.5425 -1.0597 -0.3622
  774SOL     OW 2460   0.411   3.386   1.414 -0.6519 -0.2741 -0.9538
  774SOL    HW1 2461   0.504   3.387   1.393 -0.3583 -0.2491  0.2773
  774SOL    HW2 2462   0.399   3.307   1.467 -0.6477  1.3765  1.6801
  775SOL     OW 2463   0.374   1.148   2.460  0.4404  0.0773  0.5213
  775SOL    HW1 2464   0.326   1.164   2.541  2.5017  0.6779  1.7017
  775SOL    HW2 2465   0.429   1.225   2.449  0.3570 -0.0784 -1.3833
  776SOL     OW 2466   1.470   2.541   2.185  0.1409  0.2045  0.0164
  776SOL    HW1 2467   1.476   2.522   2.279 -2.6192  0.6403  0.3575
  776SOL    HW2 2468   1.493   2.458   2.143  1.5677  0.0433  1.0490
  777SOL     OW 2469   2.814   0.448   1.286  0.0077  0.2960 -0.0269
  777SOL    HW1 2470   2.851   0.390   1.218  1.8861  1.0076  0.3135
  777SOL    HW2 2471   2.792   0.389   1.358  1.0389 -0.1288 -0.0347
  778SOL     OW 2472   0.970   3.058   0.070 -0.0284 -0.0558 -0.4744
  778SOL    HW1 2473   1.013   2.973   0.076 -2.8382 -1.6240 -1.0179
  778SOL    HW2 2474   0.945   3.078   0.160  0.6666  0.2479 -0.3408
  779SOL     OW 2475   0.398   3.374   2.819  0.0735  0.0113  0.2915
  779SOL    HW1 2476   0.306   3.367   2.844  0.2337 -1.5244  0.5444
  779SOL    HW2 2477   0.432   3.285   2.825  1.3571  0.3939 -0.7031
  780SOL     OW 2478   1.872   0.250   3.031  0.0963 -0.0129  0.3273
  780SOL    HW1 2479   1.955   0.274   3.073  1.6757 -1.4940 -1.7245
  780SOL    HW2 2480   1.861   0.316   2.962 -0.0899 -0.1874  0.1884
  781SOL     OW 2481   1.632   3.034   3.722  0.9295 -0.5898  0.1593
  781SOL    HW1 2482   1.624   3.001   3.633 -1.0856 -1.1574  0.5127
  781SOL    HW2 2483   1.642   2.955   3.776 -0.2505 -0.4174  0.6541
  782SOL     OW 2484   0.976   3.043   3.032 -0.2473  0.3306  0.0824
  782SOL    HW1 2485   0.915   3.083   2.971  1.2987 -1.2552 -2.7038
  782SOL    HW2 2486   1.007   3.115   3.086  0.6269  2.4954 -3.0722
  783SOL     OW 2487   0.775   0.685   1.835  0.1476  0.2080 -0.6607
  783SOL    HW1 2488   0.688   0.646   1.836  0.9591 -1.7327 -0.9290
  783SOL    HW2 2489   0.790   0.710   1.743  0.5610 -1.1933 -1.0005
  784SOL     OW 2490   2.684   3.041   0.943  0.5020 -0.7822 -0.4735
  784SOL    HW1 2491   2.688   3.086   1.027  0.3810 -0.0774 -0.8416
  784SOL    HW2 2492   2.650   3.106   0.882  1.4646 -0.9903 -1.2653
  785SOL     OW 2493   1.955   2.285   3.720  0.5033  0.1571 -0.2970
  785SOL    HW1 2494   2.036   2.239   3.697  0.4492 -0.1350  0.0886
  785SOL    HW2 2495   1.886   2.223   3.696  0.4506 -0.2563  0.8525
  786SOL     OW 2496   2.559   3.331   1.594 -0.0265 -0.0435  0.2221
  786SOL    HW1 2497   2.564   3.296   1.684  2.7888  2.2418  1.0978
  786SOL    HW2 2498   2.645   3.370   1.579 -0.2939 -0.5992 -3.6554
  787SOL     OW 2499   2.994   2.138   0.712  0.2520 -0.5497 -0.0403
  787SOL    HW1 2500   3.072   2.122   0.764  1.5719  0.7934 -1.5068
  787SOL    HW2 2501   2.986   2.061   0.655  2.4307  0.6358 -2.1076
  788SOL     OW 2502   0.746   0.525   0.865  0.4877 -0.0698  0.1901
  788SOL    HW1 2503   0.706   0.447   0.905 -0.0346  0.2345  0.2812
  788SOL    HW2 2504   0.817   0.548   0.925 -0.0648  0.1726  0.7734
  789SOL     OW 2505   3.319   0.328   3.066 -0.6901 -0.6099 -0.1585
  789SOL    HW1 2506   3.229   0.337   3.036 -0.9675 -0.6112  0.6541
  789SOL    HW2 2507   3.369   0.310   2.986 -1.1387  1.1045 -0.8642
  790SOL     OW 2508   1.231   1.250   2.248  0.4683 -0.3876  0.1507
  790SOL    HW1 2509   1.162   1.293   2.299  1.9798 -3.1193  5.1382
  790SOL    HW2 2510   1.196   1.162   2.230  1.1953 -0.4860 -0.8583
  791SOL     OW 2511   2.658   3.420   0.131 -0.1998 -0.0519  0.1402
  791SOL    HW1 2512   2.599   3.422   0.206 -2.1451  0.1850 -1.3215
  791SOL    HW2 2513   2.617   3.359   0.069 -0.3634  2.0563 -1.9971
  792SOL     OW 2514   1.684   1.344   2.577  0.8022  0.5004  0.2181
  792SOL    HW1 2515   1.622   1.274   2.597  0.4860  0.8339  0.4209
  792SOL    HW2 2516   1.630   1.423   2.573  1.0412  0.6203 -0.7880
  793SOL     OW 2517   0.036   3.085   2.123  0.3843 -0.4299  0.3809
  793SOL    HW1 2518   0.071   3.000   2.096 -0.3478 -0.5755 -0.1459
  793SOL    HW2 2519  -0.009   3.068   2.206  0.0679 -0.6091  0.1772
  794SOL     OW 2520   1.748   3.270   3.328  0.1561 -0.1853  0.6177
  794SOL    HW1 2521   1.820   3.282   3.389  1.7525 -4.1745 -0.1856
  794SOL    HW2 2522   1.687   3.211   3.374 -0.9787  0.4928  0.0444
  795SOL     OW 2523   0.858   3.059   1.438  0.3269 -0.0707  0.2656
  795SOL    HW1 2524   0.849   3.149   1.406  0.6081 -0.3080 -0.4850
  795SOL    HW2 2525   0.826   3.063   1.528  2.1175  1.1825  0.9011
  796SOL     OW 2526   2.880   0.846   2.453 -0.9595  0.8014 -0.0108
  796SOL    HW1 2527   2.800   0.798   2.474  0.3788 -1.3194  0.6135
  796SOL    HW2 2528   2.922   0.793   2.385  2.0732 -0.7986  2.8184
  797SOL     OW 2529   1.687   0.653   3.633 -0.4557 -0.4412  0.1941
  797SOL    HW1 2530   1.608   0.706   3.621 -0.5813 -0.3990  1.1400
  797SOL    HW2 2531   1.666   0.569   3.591 -1.7890 -1.1465  2.1562
  798SOL     OW 2532   1.978   1.006   0.802  0.1930  0.4872 -0.0561
  798SOL    HW1 2533   2.067   0.990   0.834  1.0631 -0.5340 -2.7091
  798SOL    HW2 2534   1.974   1.101   0.791  0.9553  0.5460  0.0880
  799SOL     OW 2535   1.453   3.401   2.402 -0.0094  0.0324  0.5388
  799SOL    HW1 2536   1.460   3.306   2.409 -0.2400 -0.1114 -0.8922
  799SOL    HW2 2537   1.414   3.428   2.485  0.1742 -1.1064  1.0129
  800SOL     OW 2538   0.901   1.004   2.692 -0.1559  0.6065  0.0749
  800SOL    HW1 2539   0.895   1.091   2.655 -0.3453  0.7891  0.5204
  800SOL    HW2 2540   0.845   1.008   2.771 -0.4458 -0.0102 -0.0919
  801SOL     OW 2541   0.738   1.322   2.037  0.5097 -0.0550 -0.3306
  801SOL    HW1 2542   0.671   1.260   2.065 -0.4449  1.1254  0.0746
  801SOL    HW2 2543   0.821   1.278   2.056 -0.0988 -0.2496  2.2011
  802SOL     OW 2544   2.982   1.061   1.170 -0.0446  0.6513 -0.1880
  802SOL    HW1 2545   3.014   1.137   1.217 -0.4828  1.1639 -0.7031
  802SOL    HW2 2546   3.008   1.076   1.079 -2.9355  1.8061 -0.9217
  803SOL     OW 2547   0.677   2.091   1.340 -0.3312 -0.2053 -0.2386
  803SOL    HW1 2548   0.757   2.054   1.378 -1.1752 -4.0763 -1.7549
  803SOL    HW2 2549   0.611   2.083   1.410 -0.3200 -0.9768 -0.3044
  804SOL     OW 2550   1.421   3.741   0.775 -0.4424  0.2353  0.3398
  804SOL    HW1 2551   1.368   3.749   0.696 -0.8859  1.7785  0.7579
  804SOL    HW2 2552   1.458   3.652   0.770  0.2412  0.5787 -2.0016
  805SOL     OW 2553   1.908   0.845   3.181  0.3389 -0.2456  0.2912
  805SOL    HW1 2554   1.909   0.835   3.276 -0.1667 -3.7096  0.0720
  805SOL    HW2 2555   1.914   0.755   3.148  0.2946  0.8344 -2.9664
  806SOL     OW 2556   2.529   2.367   0.925 -0.0055 -0.5170  1.2092
  806SOL    HW1 2557   2.566   2.321   0.849 -0.3639 -0.6585  1.1212
  806SOL    HW2 2558   2.554   2.459   0.911 -1.4784 -0.2613  0.0637
  807SOL     OW 2559   3.733   1.361   0.735 -0.8111  0.7192  0.3864
  807SOL    HW1 2560   3.795   1.307   0.687  0.3661  0.1484  2.4306
  807SOL    HW2 2561   3.648   1.319   0.721 -0.6122  0.8512 -1.5027
  808SOL     OW 2562   0.054   0.018   1.935 -0.4871 -0.3412 -0.2911
  808SOL    HW1 2563  -0.014   0.074   1.897 -0.3276  1.0359  1.2989
  808SOL    HW2 2564   0.009  -0.065   1.954 -1.5035  0.2355 -0.0930
  809SOL     OW 2565   2.183   1.621   3.292 -0.0865  0.1208  0.6825
  809SOL    HW1 2566   2.104   1.673   3.272  1.0036  1.3130 -0.8283
  809SOL    HW2 2567   2.185   1.555   3.223  0.3754  0.2701  0.5517
  810SOL     OW 2568   1.002   3.426   0.405  0.1941  0.2491 -0.0016
  810SOL    HW1 2569   1.018   3.505   0.353  1.2515 -0.1794 -0.3500
  810SOL    HW2 2570   0.910   3.432   0.429 -0.3854  0.3903 -2.0510
  811SOL     OW 2571   2.619   2.278   0.260 -0.3007  0.2004  0.0001
  811SOL    HW1 2572   2.578   2.364   0.251  1.1523  1.0074  0.7819
  811SOL    HW2 2573   2.550   2.222   0.294 -1.1278  1.1807 -0.0137
  812SOL     OW 2574   2.060   2.549   2.157  0.1634  0.7091 -0.3430
  812SOL    HW1 2575   2.110   2.631   2.155  0.9542  0.2362 -0.0937
  812SOL    HW2 2576   2.126   2.480   2.151 -0.2206 -0.0132  2.4407
  813SOL     OW 2577   0.105   1.818   3.680 -0.8297 -0.0321 -0.5742
  813SOL    HW1 2578   0.149   1.826   3.765  1.0633 -0.1419 -1.4819
  813SOL    HW2 2579   0.030   1.876   3.686 -1.3095 -0.7928  1.5057
  814SOL     OW 2580   0.197   1.476   2.877 -0.5649 -0.3655  0.4688
  814SOL    HW1 2581   0.183   1.559   2.831  0.7202  0.7840  2.0165
  814SOL    HW2 2582   0.238   1.419   2.812 -1.6446  0.1157 -0.6791
  815SOL     OW 2583   1.147   2.969   3.292  0.0897 -0.3318 -0.3343
  815SOL    HW1 2584   1.206   2.933   3.359 -0.4868 -0.1028  0.2994
  815SOL    HW2 2585   1.063   2.928   3.309 -0.5001  1.0568  0.1936
  816SOL     OW 2586   1.656   3.308   1.297 -0.0231 -0.3148  0.1697
  816SOL    HW1 2587   1.696   3.381   1.251 -1.4024 -0.5874 -1.5466
  816SOL    HW2 2588   1.565   3.308   1.269 -0.5149 -1.5583  1.6023
  817SOL     OW 2589   0.157   1.233   3.701  0.1060  0.7769  0.3638
  817SOL    HW1 2590   0.116   1.151   3.673 -0.6893  0.9967  0.8509
  817SOL    HW2 2591   0.088   1.280   3.747  0.7364  1.4459  0.6492
  818SOL     OW 2592   2.186   1.027   0.318  0.7884 -0.4067  0.6662
  818SOL    HW1 2593   2.238   0.947   0.307 -1.4636 -1.7932 -0.9601
  818SOL    HW2 2594   2.167   1.055   0.228 -1.9241 -0.5084  1.1196
  819SOL     OW 2595   2.414   3.273   0.447  0.2179 -0.3144 -0.0561
  819SOL    HW1 2596   2.443   3.362   0.429  1.1380 -0.8970 -1.7205
  819SOL    HW2 2597   2.379   3.242   0.363  0.2848 -1.6423  0.3823
  820SOL     OW 2598   0.376   1.353   2.693 -0.3174 -0.4116 -0.0588
  820SOL    HW1 2599   0.447   1.379   2.752 -0.3344 -0.2277 -0.1170
  820SOL    HW2 2600   0.412   1.365   2.606  0.9531 -3.9840 -0.1819
  821SOL     OW 2601   1.493   1.851   2.460  0.0185 -0.1033  0.0513
  821SOL    HW1 2602   1.540   1.914   2.405  0.0553  0.8220  1.1279
  821SOL    HW2 2603   1.541   1.850   2.542 -1.0716 -0.1382  0.7051
  822SOL     OW 2604   3.140   1.486   0.334 -0.2924  0.2128  0.2708
  822SOL    HW1 2605   3.113   1.414   0.278  0.5980 -0.4464  0.6656
  822SOL    HW2 2606   3.180   1.549   0.275 -1.5785  0.6695 -0.1555
  823SOL     OW 2607   1.664   1.866   2.723 -0.2437 -0.0421  0.4348
  823SOL    HW1 2608   1.686   1.959   2.720 -0.3358 -0.0379 -0.3429
  823SOL    HW2 2609   1.704   1.834   2.804  0.7992  0.4177  0.1170
  824SOL     OW 2610   3.687   1.304   0.132  0.0552 -0.7578  0.9660
  824SOL    HW1 2611   3.698   1.215   0.166  0.6746 -0.5606  1.2970
  824SOL    HW2 2612   3.681   1.359   0.210  1.9888 -0.2368  0.7978
  825SOL     OW 2613   0.789   2.161   0.661  0.3703 -0.1881 -0.1468
  825SOL    HW1 2614   0.879   2.134   0.644  0.4920 -0.5401  0.9913
  825SOL    HW2 2615   0.771   2.228   0.595  1.2476 -0.5581 -0.7809
  826SOL     OW 2616   2.249   0.288   2.726  0.0276 -0.1276  0.2721
  826SOL    HW1 2617   2.188   0.352   2.764 -0.5987 -0.1186 -0.7294
  826SOL    HW2 2618   2.336   0.321   2.751 -0.3508 -0.1473  1.7325
  827SOL     OW 2619   1.133   3.028   1.419  0.0321  0.0244 -0.8980
  827SOL    HW1 2620   1.172   3.026   1.506 -0.4895 -0.8732 -0.6661
  827SOL    HW2 2621   1.040   3.049   1.434  0.5174  3.1942 -1.5134
  828SOL     OW 2622   2.575   1.139   3.085  0.4249  0.1281  0.3246
  828SOL    HW1 2623   2.560   1.230   3.111 -0.2160  0.3659 -0.8168
  828SOL    HW2 2624   2.668   1.124   3.102  0.6913  1.2121 -0.1159
  829SOL     OW 2625   0.617   0.706   2.629 -0.2941  0.4461  0.6007
  829SOL    HW1 2626   0.657   0.764   2.564  0.8093 -0.4464  0.4688
  829SOL    HW2 2627   0.607   0.622   2.585 -2.4457  0.6410  0.5989
  830SOL     OW 2628   2.089   2.023   2.757  0.0577  0.4375  0.6969
  830SOL    HW1 2629   1.996   2.042   2.766  0.2511  1.0564  1.5285
  830SOL    HW2 2630   2.093   1.951   2.694 -1.0743 -0.5211  1.6721
  831SOL     OW 2631   2.176   3.424   2.559  0.6838  0.7003  0.1093
  831SOL    HW1 2632   2.144   3.494   2.616 -2.4345 -0.3972 -0.0609
  831SOL    HW2 2633   2.216   3.470   2.485  0.0232  2.2692  0.6846
  832SOL     OW 2634   1.001   1.860   0.179  0.0065 -0.1444  0.6435
  832SOL    HW1 2635   0.978   1.948   0.151 -2.5147 -0.9154 -0.0120
  832SOL    HW2 2636   0.985   1.859   0.273  0.6692  0.2551  0.7652
  833SOL     OW 2637   1.139   3.474   1.902 -0.3415 -0.2493  0.1862
  833SOL    HW1 2638   1.115   3.524   1.979 -0.5838 -0.3709  0.1895
  833SOL    HW2 2639   1.203   3.409   1.933  1.3570  1.1799 -0.1234
  834SOL     OW 2640   0.027   2.225   2.532 -0.3153 -0.3080  0.3730
  834SOL    HW1 2641   0.063   2.271   2.608  2.8103 -0.5760 -0.8003
  834SOL    HW2 2642  -0.026   2.155   2.570  1.1451 -0.4333  2.3489
  835SOL     OW 2643   0.048   2.591   0.750 -0.5070 -0.0364  0.3922
  835SOL    HW1 2644   0.018   2.505   0.781  1.7485 -1.0617 -0.1100
  835SOL    HW2 2645   0.037   2.648   0.827  0.5419 -1.4280  1.6335
  836SOL     OW 2646   2.047   1.920   2.516  0.3664  0.2745 -0.0424
  836SOL    HW1 2647   2.090   2.004   2.503 -1.2395  1.5326  1.9836
  836SOL    HW2 2648   1.972   1.922   2.457  0.4893  0.1516 -0.2011
  837SOL     OW 2649   3.716   2.576   1.931  0.4253 -0.0684  0.0843
  837SOL    HW1 2650   3.652   2.539   1.869  0.1722  0.4304  0.0417
  837SOL    HW2 2651   3.795   2.590   1.878  0.6881 -1.0098  0.2170
  838SOL     OW 2652   2.116   0.334   1.532  0.2408 -0.3668  0.0730
  838SOL    HW1 2653   2.092   0.425   1.543  0.0445 -0.5833  1.6441
  838SOL    HW2 2654   2.033   0.287   1.526  0.3204 -0.3375 -2.1824
  839SOL     OW 2655   2.288   1.726   0.108  0.6095  0.1507  0.5102
  839SOL    HW1 2656   2.209   1.678   0.083  0.3182  1.4523 -1.2099
  839SOL    HW2 2657   2.354   1.699   0.044  0.4420  1.9692 -0.4870
  840SOL     OW 2658   2.580   3.272   0.674  0.1785  0.1449  0.0705
  840SOL    HW1 2659   2.671   3.244   0.662  0.9654  2.5070 -0.0016
  840SOL    HW2 2660   2.554   3.306   0.589 -0.7984 -0.5000  0.0960
  841SOL     OW 2661   0.758   1.291   0.629 -0.2047 -0.0495  0.1638
  841SOL    HW1 2662   0.682   1.342   0.657 -0.5786 -1.5494  2.0464
  841SOL    HW2 2663   0.730   1.250   0.547 -1.4128 -0.5273  0.7909
  842SOL     OW 2664   0.567   1.203   2.851 -0.5527  0.1103 -0.4438
  842SOL    HW1 2665   0.563   1.162   2.764 -0.5211 -0.8706  0.0037
  842SOL    HW2 2666   0.639   1.266   2.844  1.2754 -1.8682 -0.3526
  843SOL     OW 2667   1.201   1.946   0.810  0.0494  0.2707 -0.6132
  843SOL    HW1 2668   1.233   1.856   0.805 -0.8852 -0.0437 -1.1505
  843SOL    HW2 2669   1.125   1.948   0.752 -0.1293  1.3285 -0.3667
  844SOL     OW 2670   0.066   0.061   0.520  0.0744 -0.6960 -0.7645
  844SOL    HW1 2671   0.024   0.133   0.567  0.4024 -1.0363  0.0690
  844SOL    HW2 2672   0.004   0.037   0.451 -0.5339 -0.3650 -0.3334
  845SOL     OW 2673   2.874   0.494   1.941  0.1569  0.5746  0.1521
  845SOL    HW1 2674   2.778   0.498   1.940  0.0683 -0.7311 -1.8520
  845SOL    HW2 2675   2.897   0.491   2.034 -1.7552  0.5761  0.6624
  846SOL     OW 2676   3.006   1.100   3.192 -0.3808  0.0079 -0.4520
  846SOL    HW1 2677   3.069   1.172   3.187 -1.0088  0.4769 -2.1836
  846SOL    HW2 2678   2.950   1.111   3.115 -2.4828 -0.4940  0.9076
  847SOL     OW 2679   1.911   1.808   1.736 -0.0741 -0.0592 -0.2675
  847SOL    HW1 2680   1.848   1.763   1.792  0.3785  0.3588  0.5962
  847SOL    HW2 2681   1.963   1.738   1.697  0.2582 -0.3169  0.6206
  848SOL     OW 2682   0.804   2.704   2.944  0.1449  0.1833 -0.5903
  848SOL    HW1 2683   0.877   2.642   2.936 -1.1128 -1.2375 -1.8381
  848SOL    HW2 2684   0.746   2.664   3.008  1.0578  2.0432  1.5481
  849SOL     OW 2685   1.014   2.381   1.030  0.1961 -0.1127 -0.2776
  849SOL    HW1 2686   0.956   2.415   0.962  1.4881 -0.6779 -1.7135
  849SOL    HW2 2687   1.016   2.287   1.016  0.6172 -0.2182  0.4307
  850SOL     OW 2688   2.598   3.553   2.642  0.1538 -0.6082  0.1090
  850SOL    HW1 2689   2.555   3.622   2.693  2.0331  0.8248 -0.1282
  850SOL    HW2 2690   2.692   3.575   2.647  0.5919 -1.7950 -1.9404
  851SOL     OW 2691   0.934   1.511   0.425  0.0839  0.2075 -0.2644
  851SOL    HW1 2692   0.849   1.544   0.455 -0.1389 -0.2465 -0.3841
  851SOL    HW2 2693   0.941   1.543   0.335  0.2142  0.5635 -0.1310
  852SOL     OW 2694   2.678   1.731   2.246 -0.4357 -0.8711 -0.2597
  852SOL    HW1 2695   2.726   1.760   2.169  0.4457 -0.2602  0.5072
  852SOL    HW2 2696   2.651   1.641   2.225 -0.1193 -0.7515 -1.2242
  853SOL     OW 2697   1.284   2.775   3.122 -0.2031 -0.5799 -0.1816
  853SOL    HW1 2698   1.296   2.840   3.052 -1.1954  0.6838  0.7589
  853SOL    HW2 2699   1.199   2.797   3.160 -0.6811 -2.6320  0.0044
  854SOL     OW 2700   3.387   0.488   2.648 -0.4370 -0.1597  0.6978
  854SOL    HW1 2701   3.423   0.573   2.675 -0.0562 -0.6571  1.8547
  854SOL    HW2 2702   3.463   0.430   2.645 -0.7368 -0.5353  0.2417
  855SOL     OW 2703   0.364   3.288   2.516 -0.0859  0.1580 -0.2621
  855SOL    HW1 2704   0.434   3.245   2.564  0.0766 -0.0724 -0.6979
  855SOL    HW2 2705   0.324   3.347   2.579 -0.4779 -0.8177  0.4157
  856SOL     OW 2706   3.304   0.740   1.648  0.5292 -0.1359 -0.0969
  856SOL    HW1 2707   3.260   0.707   1.727  1.3176  0.2513  0.5150
  856SOL    HW2 2708   3.232   0.758   1.587 -0.6495  3.8250  2.0799
  857SOL     OW 2709   0.133   1.820   0.737  0.0419 -0.0230 -0.0752
  857SOL    HW1 2710   0.098   1.746   0.687 -0.6953  0.1667  0.1536
  857SOL    HW2 2711   0.092   1.812   0.823  0.2324  0.4493  0.0631
  858SOL     OW 2712   3.707   3.279   3.606 -0.1496  0.3330 -0.3320
  858SOL    HW1 2713   3.663   3.216   3.549  0.1026 -0.2027  0.0515
  858SOL    HW2 2714   3.736   3.348   3.547 -1.3677  0.6276 -0.6101
  859SOL     OW 2715   0.239   3.279   1.838 -0.1902 -0.2741  0.3808
  859SOL    HW1 2716   0.280   3.360   1.807 -0.2051 -0.2585  0.4008
  859SOL    HW2 2717   0.309   3.230   1.880 -0.3718  0.1406  1.1870
  860SOL     OW 2718   3.588   2.253   3.478 -0.1224  0.2702 -0.1191
  860SOL    HW1 2719   3.501   2.274   3.444 -0.0682 -0.7431 -0.9348
  860SOL    HW2 2720   3.611   2.328   3.533 -0.8250  1.2912 -1.1616
  861SOL     OW 2721   3.529   1.484  -0.017  0.2349 -0.4319 -0.0819
  861SOL    HW1 2722   3.601   1.437   0.026 -0.2515 -1.5870 -0.4834
  861SOL    HW2 2723   3.499   1.547   0.049  2.5302  1.1303 -0.3982
  862SOL     OW 2724   0.230   3.637   2.129 -0.2365  0.4305  0.0441
  862SOL    HW1 2725   0.298   3.700   2.105 -2.1823  3.0706  1.0827
  862SOL    HW2 2726   0.156   3.658   2.072 -0.6078 -1.7155 -0.3642
  863SOL     OW 2727   2.474   1.364   2.003 -0.5023 -0.1146  0.2202
  863SOL    HW1 2728   2.514   1.277   1.996  0.4615  0.2813  0.5161
  863SOL    HW2 2729   2.488   1.404   1.917 -0.9137 -0.2375  0.0953
  864SOL     OW 2730   1.387   3.272   0.670 -0.2445 -0.5716  0.0099
  864SOL    HW1 2731   1.326   3.286   0.742  0.4802 -0.0462  0.5397
  864SOL    HW2 2732   1.389   3.355   0.622 -0.3683 -0.7663 -0.3376
  865SOL     OW 2733   3.658   1.071   0.244  0.8485 -0.1266  0.2742
  865SOL    HW1 2734   3.747   1.082   0.276  1.5578 -0.2892 -1.5489
  865SOL    HW2 2735   3.633   0.983   0.271  1.9492 -0.7894 -0.7573
  866SOL     OW 2736   0.776   1.676   3.095 -0.3611 -0.0596  0.2761
  866SOL    HW1 2737   0.694   1.627   3.098  0.5184 -1.5582  0.9732
  866SOL    HW2 2738   0.791   1.692   3.001  1.3816 -4.9271 -0.5937
  867SOL     OW 2739   3.481   0.088   0.838  0.4872  0.0917  0.3467
  867SOL    HW1 2740   3.553   0.140   0.802  0.8501  1.1963  2.5159
  867SOL    HW2 2741   3.415   0.086   0.768  1.9651  0.3534 -1.1112
  868SOL     OW 2742   2.775   0.441   0.127  0.5393  0.2117  0.6983
  868SOL    HW1 2743   2.722   0.387   0.185  1.3676  0.1184  1.3872
  868SOL    HW2 2744   2.781   0.526   0.172  0.1180  0.5521  0.1263
  869SOL     OW 2745   1.387   2.676   0.065 -0.1316  0.1587 -0.5897
  869SOL    HW1 2746   1.444   2.713   0.132 -0.4608 -0.7763  0.2260
  869SOL    HW2 2747   1.430   2.697  -0.018  0.3707  1.1730 -0.0892
  870SOL     OW 2748   3.344   3.668   2.936  0.3218  0.0461 -0.0340
  870SOL    HW1 2749   3.311   3.588   2.896  0.2495 -0.6611  1.3749
  870SOL    HW2 2750   3.355   3.729   2.863 -1.2907 -0.6513 -0.9099
  871SOL     OW 2751   1.200   2.950   0.885  0.2771  0.4761  0.2865
  871SOL    HW1 2752   1.114   2.990   0.893  0.6391  1.0633  1.5726
  871SOL    HW2 2753   1.241   2.964   0.970  1.2828 -0.6521  0.0247
  872SOL     OW 2754   0.173   2.992   3.419  0.1898 -0.6305  0.5738
  872SOL    HW1 2755   0.172   2.906   3.376 -0.4689 -1.0145  1.3244
  872SOL    HW2 2756   0.187   3.054   3.348  0.4544 -1.3395 -0.0157
  873SOL     OW 2757   3.173   0.389   1.534  0.2393  0.1526 -0.4528
  873SOL    HW1 2758   3.156   0.481   1.515 -0.7666  0.1423  0.3242
  873SOL    HW2 2759   3.134   0.374   1.620 -2.1204 -1.6587 -1.7177
  874SOL     OW 2760   1.696   2.350   2.915  0.1030 -0.5435  0.8350
  874SOL    HW1 2761   1.741   2.408   2.975  0.6329  0.2445 -0.2866
  874SOL    HW2 2762   1.697   2.265   2.958  0.4952 -0.0085  1.9087
  875SOL     OW 2763   2.494   0.218   0.928  0.2584  0.6694  0.3753
  875SOL    HW1 2764   2.448   0.301   0.923 -0.3862  0.2597 -0.8458
  875SOL    HW2 2765   2.446   0.168   0.995 -2.0417 -0.2706 -1.8038
  876SOL     OW 2766   2.161   2.810   0.492 -0.4989 -0.4933 -0.0382
  876SOL    HW1 2767   2.074   2.842   0.518 -1.1409  0.2870 -2.7629
  876SOL    HW2 2768   2.160   2.717   0.514 -0.5246  0.2084  3.4174
  877SOL     OW 2769   1.435   0.889   1.069  0.5614  0.1677 -0.1745
  877SOL    HW1 2770   1.407   0.949   1.000 -2.0578  0.2906  0.8592
  877SOL    HW2 2771   1.452   0.946   1.144 -1.8288 -0.2623  0.7784
  878SOL     OW 2772   1.397   1.748   2.752  0.1149  0.4142  0.5804
  878SOL    HW1 2773   1.417   1.841   2.754  1.1682  0.2078  1.7940
  878SOL    HW2 2774   1.310   1.742   2.714  0.2111  1.8520  0.0788
  879SOL     OW 2775   2.280   0.848   2.224  0.5686  0.0233 -0.2769
  879SOL    HW1 2776   2.359   0.833   2.275  0.4736 -0.6046 -0.3063
  879SOL    HW2 2777   2.287   0.788   2.150  0.7778  1.0236 -1.0948
  880SOL     OW 2778   1.928   0.991   2.452  0.1695  0.3707  0.1072
  880SOL    HW1 2779   1.864   1.052   2.416 -1.7032 -0.7257  1.4293
  880SOL    HW2 2780   1.961   1.035   2.531 -0.3387  0.1709  0.4363
  881SOL     OW 2781   3.056   1.338   1.671  0.1682 -0.1060  0.0106
  881SOL    HW1 2782   3.121   1.402   1.643  1.0653 -1.0246 -0.0599
  881SOL    HW2 2783   3.107   1.264   1.704 -0.8199 -1.1064 -0.6247
  882SOL     OW 2784   1.790   0.683   2.940 -0.1802  0.0159  0.3579
  882SOL    HW1 2785   1.736   0.722   3.008  0.1896  0.3482  0.4628
  882SOL    HW2 2786   1.737   0.612   2.905  0.2301 -1.1713  2.0524
  883SOL     OW 2787   2.181   1.183   0.075  0.2670  0.2233 -0.1793
  883SOL    HW1 2788   2.162   1.115   0.011  0.2041 -0.9748  1.0637
  883SOL    HW2 2789   2.258   1.228   0.040  1.7448 -1.9870  0.0543
  884SOL     OW 2790   3.494   3.525   2.675  0.1960  0.6303  0.5675
  884SOL    HW1 2791   3.453   3.450   2.632 -0.1225  1.1875 -0.1316
  884SOL    HW2 2792   3.502   3.499   2.767 -1.9384  0.5739  0.7944
  885SOL     OW 2793   1.091   2.579   1.222  0.1720 -0.0370  0.2104
  885SOL    HW1 2794   1.081   2.501   1.167 -0.6668 -0.0206  0.3202
  885SOL    HW2 2795   1.040   2.646   1.177  1.2317  0.5765 -0.1021
  886SOL     OW 2796   3.270   0.758   2.095 -0.4159  0.1455  0.5233
  886SOL    HW1 2797   3.285   0.831   2.034  2.6232 -1.8450 -1.3748
  886SOL    HW2 2798   3.322   0.780   2.172  0.1617  0.2414  0.1196
  887SOL     OW 2799   3.712   1.525   3.438  0.7426  0.1836  0.1269
  887SOL    HW1 2800   3.707   1.434   3.469  0.2527  0.2097  0.1286
  887SOL    HW2 2801   3.650   1.572   3.493  2.7407  1.0181  1.8368
  888SOL     OW 2802   1.414   2.049   1.528  0.3048 -0.0882  0.2148
  888SOL    HW1 2803   1.365   2.082   1.603  0.2498  2.9112 -1.0100
  888SOL    HW2 2804   1.474   1.985   1.565 -0.6610  0.2861  2.5877
  889SOL     OW 2805   0.486   0.623   3.559 -0.0116  0.9358 -0.1448
  889SOL    HW1 2806   0.527   0.556   3.613  0.2497  1.9585  0.9830
  889SOL    HW2 2807   0.392   0.613   3.574 -0.0024  0.5401 -0.3411
  890SOL     OW 2808   2.261   0.857   0.546  0.3647 -0.1337  0.0074
  890SOL    HW1 2809   2.326   0.909   0.593  0.0724  1.2613 -1.0719
  890SOL    HW2 2810   2.239   0.909   0.469  0.5215 -2.1461 -1.4825
  891SOL     OW 2811   0.636   3.741   1.371  0.3785  0.0251  0.3303
  891SOL    HW1 2812   0.658   3.649   1.356  1.3497  0.2731  0.1479
  891SOL    HW2 2813   0.618   3.747   1.464  0.7542 -0.2678  0.4233
  892SOL     OW 2814   2.322   2.654   2.080  0.7208  0.0025 -0.3070
  892SOL    HW1 2815   2.378   2.674   2.004  2.0878  1.5944  1.0117
  892SOL    HW2 2816   2.356   2.711   2.150  0.9770 -2.9292  2.1650
  893SOL     OW 2817   1.614   2.640   0.354 -0.0025 -0.0590 -0.0355
  893SOL    HW1 2818   1.610   2.685   0.438  0.0176  1.4136 -0.7857
  893SOL    HW2 2819   1.546   2.573   0.359 -0.6993  0.6864  0.7720
  894SOL     OW 2820   3.582   1.431   1.351 -0.0848 -0.5641 -0.7515
  894SOL    HW1 2821   3.621   1.444   1.438 -2.8218 -0.7243  0.6351
  894SOL    HW2 2822   3.553   1.519   1.326 -1.2322 -0.8320 -0.4399
  895SOL     OW 2823   0.948   0.041   0.927 -0.0195  0.4242  0.3581
  895SOL    HW1 2824   1.024   0.083   0.885  0.8785 -0.7084  0.8022
  895SOL    HW2 2825   0.876   0.055   0.865  0.6209  1.2281 -0.2302
  896SOL     OW 2826   0.380   2.930   3.088 -0.2644 -0.6868  0.0320
  896SOL    HW1 2827   0.404   2.932   2.995  0.8446 -0.1527  0.3135
  896SOL    HW2 2828   0.397   2.840   3.115  0.8013 -0.4832  0.0582
  897SOL     OW 2829   0.417   1.172   3.494  0.1878  0.3397 -0.1313
  897SOL    HW1 2830   0.328   1.142   3.474  0.0793 -0.0680  0.8997
  897SOL    HW2 2831   0.412   1.267   3.490 -0.2839  0.3195 -0.1026
  898SOL     OW 2832   0.919   0.230   2.389 -0.2476 -0.0187 -0.0451
  898SOL    HW1 2833   0.841   0.286   2.393 -0.3792 -0.2505  0.9763
  898SOL    HW2 2834   0.899   0.158   2.449  1.4910  0.8827  1.7149
  899SOL     OW 2835   1.348   2.106   0.992 -0.7112  0.1188 -0.1788
  899SOL    HW1 2836   1.269   2.053   0.980  0.4840 -1.7239 -0.2794
  899SOL    HW2 2837   1.321   2.194   0.969 -2.3550 -0.7201 -1.7202
  900SOL     OW 2838   1.336   0.064   0.522 -0.0981  0.0512  0.3344
  900SOL    HW1 2839   1.243   0.086   0.525 -0.0129  0.3815  2.2092
  900SOL    HW2 2840   1.369   0.107   0.444 -1.0719  1.9352  0.9024
  901SOL     OW 2841   2.044   1.429   0.156 -0.4479  0.1757 -0.6441
  901SOL    HW1 2842   1.981   1.419   0.085 -0.3907 -1.3344 -0.5256
  901SOL    HW2 2843   2.124   1.390   0.122  0.8093  2.9896 -1.1858
  902SOL     OW 2844   3.050   3.438   2.639 -0.3378 -0.0256  0.2730
  902SOL    HW1 2845   2.988   3.401   2.577 -0.4745  1.3101 -0.4367
  902SOL    HW2 2846   3.009   3.520   2.668  1.9894  2.2028 -2.0414
  903SOL     OW 2847   0.481   1.704   1.700  0.2282 -0.6984  0.0124
  903SOL    HW1 2848   0.556   1.699   1.758  0.6647  0.8306 -0.3782
  903SOL    HW2 2849   0.516   1.684   1.613 -0.2263 -1.9726  0.1028
  904SOL     OW 2850   1.253   2.255   3.373  0.0280  0.4633  0.3105
  904SOL    HW1 2851   1.226   2.269   3.464  0.7876 -0.6337  0.7188
  904SOL    HW2 2852   1.304   2.175   3.375 -2.3042 -1.2160 -1.5293
  905SOL     OW 2853   0.062   0.656   1.844 -0.2600 -0.4035  0.0119
  905SOL    HW1 2854   0.083   0.726   1.783  0.1980  0.2858  0.9527
  905SOL    HW2 2855   0.146   0.614   1.863 -0.5898 -1.6109 -0.9830
  906SOL     OW 2856   3.299   2.410   3.126  0.5808  0.2701 -0.2719
  906SOL    HW1 2857   3.260   2.376   3.207  0.3862  0.2877 -0.3589
  906SOL    HW2 2858   3.233   2.468   3.090  1.1531  1.2465  0.2051
  907SOL     OW 2859   1.815   2.369   1.721  0.7280  0.5874 -0.5040
  907SOL    HW1 2860   1.907   2.365   1.696  1.0255  1.9560  0.3121
  907SOL    HW2 2861   1.816   2.389   1.814 -0.4013  0.5731 -0.4751
  908SOL     OW 2862   2.826   1.190   2.273 -0.0028  0.3953  0.3309
  908SOL    HW1 2863   2.745   1.166   2.318 -0.3966  2.7286  0.9991
  908SOL    HW2 2864   2.894   1.140   2.319 -1.0191 -1.8219 -0.4286
  909SOL     OW 2865   1.749   3.602   3.275  0.2513  0.4984  0.0038
  909SOL    HW1 2866   1.764   3.668   3.207 -0.5035  1.1384  0.4453
  909SOL    HW2 2867   1.702   3.532   3.230  0.4128  0.5838 -0.3022
  910SOL     OW 2868   2.674   2.330   2.921 -0.2124  0.1996  0.1425
  910SOL    HW1 2869   2.664   2.397   2.854  0.0987  1.2802  1.1353
  910SOL    HW2 2870   2.584   2.311   2.949 -0.2454  1.2769  0.8427
  911SOL     OW 2871   3.232   1.250   3.279 -0.0979 -0.5324  0.4208
  911SOL    HW1 2872   3.314   1.294   3.303 -0.2639 -0.2570  0.4958
  911SOL    HW2 2873   3.164   1.304   3.319 -0.4360  0.4147 -1.3110
  912SOL     OW 2874   0.056   3.317   2.671 -0.3819 -0.3353  0.5252
  912SOL    HW1 2875   0.076   3.404   2.707 -1.1055  0.5694 -1.1681
  912SOL    HW2 2876   0.087   3.256   2.738 -0.5399  1.2320  2.1058
  913SOL     OW 2877   1.637   0.918   2.688  0.3409 -0.1801  0.4636
  913SOL    HW1 2878   1.711   0.926   2.748 -0.5297  2.4918  1.3246
  913SOL    HW2 2879   1.560   0.937   2.742 -0.6927  0.0574 -1.0261
  914SOL     OW 2880   1.615   3.368   3.087 -0.1602 -0.1646  0.5894
  914SOL    HW1 2881   1.664   3.359   3.168  0.1934 -1.8734  0.2314
  914SOL    HW2 2882   1.540   3.423   3.109 -0.5489 -1.3288  2.2984
  915SOL     OW 2883   0.569   3.555   2.693 -0.0032 -0.4619 -0.3214
  915SOL    HW1 2884   0.510   3.490   2.733 -0.2967  0.0382  0.0685
  915SOL    HW2 2885   0.636   3.502   2.649 -0.0288 -1.0333  0.3037
  916SOL     OW 2886   0.644   2.476   1.919 -0.0512  0.5875 -0.0089
  916SOL    HW1 2887   0.728   2.469   1.963 -0.3496  0.8043  0.6064
  916SOL    HW2 2888   0.628   2.570   1.912 -0.7103  0.5517  0.8089
  917SOL     OW 2889   1.579   2.317   2.071 -0.0835 -0.0009 -0.3475
  917SOL    HW1 2890   1.626   2.368   2.004 -0.4083 -0.1515 -0.6933
  917SOL    HW2 2891   1.600   2.226   2.051  0.8818  0.0028  0.5609
  918SOL     OW 2892   2.881   1.766   0.158 -0.3888 -0.2158 -0.8863
  918SOL    HW1 2893   2.849   1.815   0.082 -1.4807 -1.2668 -1.1358
  918SOL    HW2 2894   2.865   1.675   0.136  1.6060 -0.7321 -0.4333
  919SOL     OW 2895   2.114   0.947   1.088  0.5568  0.1597  0.2210
  919SOL    HW1 2896   2.110   0.919   1.179  0.3689 -1.1077 -0.1592
  919SOL    HW2 2897   2.024   0.938   1.056  0.5109  1.1159  0.0510
  920SOL     OW 2898   1.737   3.586   1.842  0.1750 -0.2488  1.1056
  920SOL    HW1 2899   1.726   3.496   1.871 -0.2175 -0.2789  0.8607
  920SOL    HW2 2900   1.703   3.639   1.915  0.5444 -0.2925  1.3126
  921SOL     OW 2901   1.726   2.368   2.365  0.0002  0.3203  0.1045
  921SOL    HW1 2902   1.732   2.399   2.275  0.6515  2.0892  0.7105
  921SOL    HW2 2903   1.719   2.448   2.417 -0.0918 -0.6555  1.6458
  922SOL     OW 2904   2.531   0.089   2.762  0.5419 -0.0660 -0.0377
  922SOL    HW1 2905   2.462   0.130   2.710  1.3083  0.1102 -0.9384
  922SOL    HW2 2906   2.560   0.159   2.821 -0.2850 -0.2495  0.6201
  923SOL     OW 2907   2.097   2.320   1.686  0.6933 -0.0132 -0.6125
  923SOL    HW1 2908   2.171   2.306   1.626  2.3653  2.6952  0.6394
  923SOL    HW2 2909   2.109   2.409   1.719 -3.4364  0.7330 -0.6299
  924SOL     OW 2910   2.227   1.252   2.481  0.0210  0.6966 -0.4716
  924SOL    HW1 2911   2.278   1.332   2.469 -0.8226  1.3905  0.3396
  924SOL    HW2 2912   2.243   1.201   2.402  1.4835  1.1434 -0.4981
  925SOL     OW 2913   1.922   0.559   3.252 -0.5128 -0.3253 -0.9846
  925SOL    HW1 2914   1.868   0.532   3.178 -1.6301 -3.3735  0.7865
  925SOL    HW2 2915   1.943   0.478   3.298  0.8988  1.3364  1.5532
  926SOL     OW 2916   1.459   2.238   3.676 -0.2692 -0.2252 -0.0208
  926SOL    HW1 2917   1.448   2.177   3.749  0.3689 -0.1955  0.1075
  926SOL    HW2 2918   1.411   2.316   3.702 -0.8270 -0.5536 -0.0474
  927SOL     OW 2919   3.051   2.002   0.239 -0.2599 -0.8247  0.3747
  927SOL    HW1 2920   2.997   1.948   0.181 -0.2163  0.5267 -0.9866
  927SOL    HW2 2921   2.989   2.062   0.281  0.0943  0.6726 -1.1261
  928SOL     OW 2922   0.200   3.631   1.406  0.0242  0.1769 -0.4545
  928SOL    HW1 2923   0.246   3.553   1.437  2.1024  0.8528 -1.6381
  928SOL    HW2 2924   0.111   3.600   1.386 -0.4253 -0.9804  2.7643
  929SOL     OW 2925   2.326   2.131   2.842 -0.0166  0.5294 -0.2880
  929SOL    HW1 2926   2.235   2.115   2.816 -0.4556  1.4888  0.5554
  929SOL    HW2 2927   2.321   2.210   2.897  1.3222  0.5638 -0.1884
  930SOL     OW 2928   3.400   1.679   2.115 -0.1097  0.1835  0.3247
  930SOL    HW1 2929   3.350   1.598   2.126  2.9035 -2.0016 -0.4948
  930SOL    HW2 2930   3.435   1.698   2.202  0.0074  0.0066  0.3162
  931SOL     OW 2931   2.610   0.591   0.320 -0.0278  0.5245 -0.6204
  931SOL    HW1 2932   2.588   0.658   0.385 -1.3568 -0.8181  0.3968
  931SOL    HW2 2933   2.705   0.598   0.309  0.3092  0.5565  1.7974
  932SOL     OW 2934   3.568   2.372   2.328  0.3522 -0.3629  0.9913
  932SOL    HW1 2935   3.517   2.367   2.247  1.4410  0.9490  0.1716
  932SOL    HW2 2936   3.508   2.342   2.396 -0.6632 -1.2829 -0.2643
  933SOL     OW 2937   2.227   0.477   2.448  0.2643  0.0590 -0.5858
  933SOL    HW1 2938   2.286   0.472   2.373 -0.1903  0.2566 -0.9599
  933SOL    HW2 2939   2.229   0.388   2.485 -1.6092 -0.8831 -2.4743
  934SOL     OW 2940   2.120   2.567   0.838 -0.1654 -0.0769 -0.2580
  934SOL    HW1 2941   2.089   2.483   0.871 -0.7581 -0.5223 -1.8611
  934SOL    HW2 2942   2.212   2.552   0.817  0.5284  0.5210  2.1109
  935SOL     OW 2943   0.730   3.362   2.561 -0.4653  0.0334  0.4150
  935SOL    HW1 2944   0.709   3.269   2.566  1.3652 -0.4120  0.6316
  935SOL    HW2 2945   0.686   3.392   2.482 -2.4203 -0.6112  1.2082
  936SOL     OW 2946   0.503   2.365   2.485  0.5882  0.4215  0.0623
  936SOL    HW1 2947   0.461   2.341   2.568  0.3800  0.7234  0.0445
  936SOL    HW2 2948   0.436   2.351   2.419  0.6301  0.5537 -0.0090
  937SOL     OW 2949   3.512   3.162   0.880  0.1865 -0.8792  0.5272
  937SOL    HW1 2950   3.465   3.133   0.958 -0.7226 -2.4551 -0.5546
  937SOL    HW2 2951   3.604   3.160   0.906 -0.1016 -1.2908  1.5839
  938SOL     OW 2952   2.566   2.640   0.819  0.0339 -0.0704 -0.5180
  938SOL    HW1 2953   2.506   2.714   0.831  0.7685  0.1130  3.0815
  938SOL    HW2 2954   2.653   2.676   0.838  0.5018 -1.6429  0.5016
  939SOL     OW 2955   1.269   1.189   0.283 -0.0594  0.1894 -0.6511
  939SOL    HW1 2956   1.364   1.181   0.287  0.2089  2.3410 -1.2819
  939SOL    HW2 2957   1.246   1.239   0.362 -0.5869  0.1689 -0.7908
  940SOL     OW 2958   1.172   2.327   0.493 -0.0006 -0.2481  0.7516
  940SOL    HW1 2959   1.111   2.376   0.548 -1.8065 -0.3204 -1.0269
  940SOL    HW2 2960   1.137   2.338   0.404  1.5744 -1.8287 -0.1262
  941SOL     OW 2961   0.316   1.978   0.592 -0.1567 -0.3842  0.7798
  941SOL    HW1 2962   0.245   1.933   0.638 -0.0842  1.3077  2.7005
  941SOL    HW2 2963   0.375   2.006   0.662  1.3057  0.1323 -0.6014
  942SOL     OW 2964   3.482   0.459   0.199  0.4690  0.6311 -0.3203
  942SOL    HW1 2965   3.502   0.469   0.106  1.5950  1.6226 -0.0108
  942SOL    HW2 2966   3.391   0.485   0.208  1.1937  3.7361 -0.7344
  943SOL     OW 2967   3.622   3.444   1.107 -0.2999  0.4500  0.5991
  943SOL    HW1 2968   3.583   3.459   1.193  0.1694 -1.3059  1.1565
  943SOL    HW2 2969   3.692   3.382   1.123  1.1043  1.6036 -0.7791
  944SOL     OW 2970   3.394   3.327   3.111 -0.3351 -0.0611 -1.0262
  944SOL    HW1 2971   3.312   3.353   3.154  1.2748  0.7903  1.7766
  944SOL    HW2 2972   3.369   3.255   3.053 -2.7705 -1.2525  1.2876
  945SOL     OW 2973   3.675   1.933   2.422 -0.1044  0.4539  0.3518
  945SOL    HW1 2974   3.643   1.843   2.434 -1.8004  1.0580  0.5240
  945SOL    HW2 2975   3.699   1.962   2.509  0.2579  0.2427  0.3245
  946SOL     OW 2976   3.382   0.529   1.857  0.2391  0.0733  0.1788
  946SOL    HW1 2977   3.441   0.604   1.856  0.2058  0.1178  1.0890
  946SOL    HW2 2978   3.346   0.527   1.946  0.3343 -1.0945  0.2095
  947SOL     OW 2979   3.427   0.250   1.042 -0.2177  0.1441  0.1941
  947SOL    HW1 2980   3.504   0.306   1.041 -0.1014  0.1395  2.8420
  947SOL    HW2 2981   3.456   0.168   1.002  1.8876 -0.6698  3.1263
  948SOL     OW 2982   3.048   1.300   1.273 -0.0233 -0.2352 -0.4440
  948SOL    HW1 2983   3.053   1.349   1.190  0.2900 -1.1713 -0.9992
  948SOL    HW2 2984   2.986   1.349   1.326  0.7772  1.1284 -0.7274
  949SOL     OW 2985   2.636   3.506   2.232 -0.8122  0.8460  0.3732
  949SOL    HW1 2986   2.683   3.459   2.164 -1.3983  0.0384  0.5064
  949SOL    HW2 2987   2.702   3.560   2.274  0.5842 -2.0188  2.1486
  950SOL     OW 2988   1.365   0.102   3.384 -0.0249  0.1191  0.0464
  950SOL    HW1 2989   1.456   0.102   3.355 -0.4289  0.6563 -1.2621
  950SOL    HW2 2990   1.313   0.107   3.304 -1.2240 -0.3575  0.7596
  951SOL     OW 2991   1.510   1.459   1.819  0.1759 -0.1526  0.6528
  951SOL    HW1 2992   1.521   1.438   1.726 -0.0266 -2.0028  0.9992
  951SOL    HW2 2993   1.418   1.485   1.827  0.7025  2.0861  0.0212
  952SOL     OW 2994   1.576   1.103   0.419 -0.2064 -1.1007  0.2365
  952SOL    HW1 2995   1.609   1.016   0.444  1.6762 -0.1381  1.3642
  952SOL    HW2 2996   1.629   1.127   0.343  2.4603  0.7514  2.4736
  953SOL     OW 2997   2.881   0.199   1.534  0.7775 -0.5964  0.0523
  953SOL    HW1 2998   2.891   0.256   1.610  0.4816 -0.6054  0.0993
  953SOL    HW2 2999   2.807   0.142   1.556  0.3245 -0.2202 -0.4743
  954SOL     OW 3000   2.666   1.560   0.671  0.0160 -0.2258 -0.1876
  954SOL    HW1 3001   2.650   1.528   0.583 -0.3991 -1.9389  0.4691
  954SOL    HW2 3002   2.746   1.515   0.699 -0.3103 -0.3292  0.5941
  955SOL     OW 3003   1.184   2.257   2.623  0.2840  0.4270 -0.7685
  955SOL    HW1 3004   1.244   2.320   2.583  1.9490  0.5676  1.6693
  955SOL    HW2 3005   1.176   2.287   2.714  0.2688 -2.2361  0.1863
  956SOL     OW 3006   2.784   1.366   1.630  0.2248 -0.1937  0.1068
  956SOL    HW1 3007   2.876   1.338   1.627  0.1934 -0.4514  1.2068
  956SOL    HW2 3008   2.746   1.334   1.549  0.9441 -0.6861 -0.0409
  957SOL     OW 3009   2.077   1.352   1.140 -0.4619  0.7423  0.7729
  957SOL    HW1 3010   2.094   1.354   1.046  1.1945  0.5479  1.0456
  957SOL    HW2 3011   2.163   1.338   1.180 -1.0915  1.1374  2.3348
  958SOL     OW 3012   0.122   2.607   2.149  0.5335  0.1121  0.3481
  958SOL    HW1 3013   0.062   2.601   2.075  1.4571  1.1432 -0.5340
  958SOL    HW2 3014   0.123   2.520   2.187  1.4462 -0.9776 -2.0045
  959SOL     OW 3015   0.348   0.843   3.380 -0.6479 -0.3358  0.1643
  959SOL    HW1 3016   0.392   0.859   3.464  0.8094  1.9645 -0.9221
  959SOL    HW2 3017   0.259   0.875   3.394 -0.3919  0.1320  0.8112
  960SOL     OW 3018   2.912   1.142   2.943 -0.2476  0.0142 -0.2624
  960SOL    HW1 3019   2.998   1.185   2.945 -0.3780  0.3878 -1.6766
  960SOL    HW2 3020   2.921   1.073   2.878 -0.1987 -1.8486  1.6297
  961SOL     OW 3021   2.274   3.636   2.074  0.4142  0.4332 -0.3043
  961SOL    HW1 3022   2.207   3.573   2.046  1.5382 -1.7527  1.6129
  961SOL    HW2 3023   2.240   3.674   2.154  1.2162 -0.3260  0.4134
  962SOL     OW 3024   0.188   2.348   0.342  0.0358 -0.5356  0.0143
  962SOL    HW1 3025   0.135   2.288   0.395 -1.1277  0.7345  0.3340
  962SOL    HW2 3026   0.134   2.366   0.265 -0.0872  0.8941  0.4160
  963SOL     OW 3027   2.973   2.959   1.313 -0.0627  0.3345  0.1812
  963SOL    HW1 3028   2.891   3.010   1.317 -0.5082 -0.3731  0.2456
  963SOL    HW2 3029   3.003   2.971   1.222  0.1429  1.1635  0.3473
  964SOL     OW 3030   1.169   3.213   0.320 -0.1005  0.0576  0.1572
  964SOL    HW1 3031   1.101   3.275   0.345 -0.7482 -0.8266  0.6629
  964SOL    HW2 3032   1.247   3.243   0.368 -0.4205  0.4543  0.4358
  965SOL     OW 3033   2.398   0.546   2.259 -0.2438  0.6991 -0.0994
  965SOL    HW1 3034   2.319   0.503   2.227 -0.0155 -0.2340  0.5287
  965SOL    HW2 3035   2.455   0.473   2.285  0.0573  1.3808  1.2402
  966SOL     OW 3036   3.388   1.857   1.301  0.4151  0.7973  0.3947
  966SOL    HW1 3037   3.417   1.787   1.360  0.9979 -0.4774 -1.3312
  966SOL    HW2 3038   3.311   1.821   1.258 -0.5035  2.0456  0.9336
  967SOL     OW 3039   0.015   2.845   2.254 -0.4502 -0.2407  0.2068
  967SOL    HW1 3040   0.021   2.750   2.243 -0.8685 -0.4379  1.4648
  967SOL    HW2 3041   0.071   2.865   2.329  2.8260  1.0957 -2.3568
  968SOL     OW 3042   1.275   3.445   2.590 -0.2179 -0.2719  0.0938
  968SOL    HW1 3043   1.246   3.432   2.680  3.0750  2.1873  1.7073
  968SOL    HW2 3044   1.244   3.532   2.567  1.2727  0.2152 -0.1163
  969SOL     OW 3045   0.197   0.510   2.585  0.3481  0.1274  0.6216
  969SOL    HW1 3046   0.271   0.560   2.552  0.5962  1.5168  3.0492
  969SOL    HW2 3047   0.126   0.574   2.593 -0.1710 -0.5034  1.2235
  970SOL     OW 3048   0.472   3.120   1.843 -0.0214 -0.0437 -0.4535
  970SOL    HW1 3049   0.558   3.109   1.804 -1.2764 -0.8125 -3.1779
  970SOL    HW2 3050   0.421   3.046   1.812 -1.1126 -0.9222  2.9929
  971SOL     OW 3051   1.924   1.727   3.214 -0.0864  0.6325  0.2652
  971SOL    HW1 3052   1.884   1.644   3.190  0.0512 -0.3692  3.1486
  971SOL    HW2 3053   1.879   1.792   3.160 -0.8738 -1.1675 -1.3633
  972SOL     OW 3054   2.525   1.508   1.166  0.3932 -0.2651 -0.1375
  972SOL    HW1 3055   2.486   1.435   1.214 -1.5297  0.5315 -0.4149
  972SOL    HW2 3056   2.563   1.468   1.087  2.6399 -1.4292  1.4236
  973SOL     OW 3057   1.715   1.492   0.686 -0.0075  0.3084  0.5724
  973SOL    HW1 3058   1.696   1.524   0.774  0.5722  0.0338  0.8036
  973SOL    HW2 3059   1.694   1.398   0.690  1.3881 -0.0067  0.8421
  974SOL     OW 3060   2.986   2.840   0.173 -0.3215 -0.3799  0.4830
  974SOL    HW1 3061   3.029   2.863   0.091  0.3684 -1.7889  0.4122
  974SOL    HW2 3062   3.059   2.826   0.234 -0.7384 -1.3361  0.7745
  975SOL     OW 3063   3.033   0.650   2.605  0.1522  0.3653  0.3437
  975SOL    HW1 3064   2.970   0.707   2.562  0.6239 -0.6377 -1.8345
  975SOL    HW2 3065   3.103   0.708   2.633 -0.8661  1.2471  1.1545
  976SOL     OW 3066   0.548   0.284   0.423 -0.2845 -0.6480 -0.0059
  976SOL    HW1 3067   0.533   0.343   0.497 -2.0662 -2.2179  0.9836
  976SOL    HW2 3068   0.542   0.196   0.461  2.3958 -1.5365 -1.4100
  977SOL     OW 3069   0.411   0.351   3.187 -0.0574 -0.2286 -0.0098
  977SOL    HW1 3070   0.344   0.411   3.219 -0.4492 -1.5225  1.7430
  977SOL    HW2 3071   0.363   0.285   3.137 -0.1343 -1.1724  1.2698
  978SOL     OW 3072   2.551   1.951   2.149  0.1499 -0.0952 -0.0627
  978SOL    HW1 3073   2.498   1.895   2.092 -0.3303 -1.3110  1.4835
  978SOL    HW2 3074   2.581   1.892   2.219 -0.6929  1.6417  1.8819
  979SOL     OW 3075   0.395   2.555   2.181 -0.4604 -0.0915 -0.3346
  979SOL    HW1 3076   0.306   2.578   2.155  0.0122  0.6413 -1.3612
  979SOL    HW2 3077   0.403   2.462   2.161 -0.8568 -0.0659 -0.6240
  980SOL     OW 3078   1.232   0.653   0.967 -0.3883  0.4343  0.1643
  980SOL    HW1 3079   1.194   0.727   1.015  0.0313  1.0105 -0.3750
  980SOL    HW2 3080   1.220   0.578   1.025 -0.3022  1.0344  0.9766
  981SOL     OW 3081   2.033   0.161   3.666  0.7141 -0.4436 -0.6463
  981SOL    HW1 3082   1.940   0.166   3.645  0.4095 -2.7792 -0.1259
  981SOL    HW2 3083   2.077   0.198   3.590 -0.5838 -1.8678 -2.1497
  982SOL     OW 3084   2.580   1.502   1.744 -0.3753  1.0000 -0.7588
  982SOL    HW1 3085   2.637   1.444   1.694 -2.4763  0.0679 -2.2219
  982SOL    HW2 3086   2.621   1.588   1.736  1.3555  0.2064 -0.8539
  983SOL     OW 3087   0.037   0.936   1.935 -0.3024 -0.5577  0.4394
  983SOL    HW1 3088  -0.036   0.888   1.895 -0.8575 -0.3204  1.1481
  983SOL    HW2 3089   0.107   0.933   1.869 -1.7727  1.3600 -1.3532
  984SOL     OW 3090   1.458   0.680   2.909 -0.0733  0.2880  0.0293
  984SOL    HW1 3091   1.506   0.601   2.887 -0.4896  0.3417 -1.1794
  984SOL    HW2 3092   1.476   0.695   3.002  0.6268 -0.7829  0.0797
  985SOL     OW 3093   0.545   1.600   3.271  0.2272 -0.1893 -0.5162
  985SOL    HW1 3094   0.543   1.689   3.307  0.5062  0.3068 -1.6546
  985SOL    HW2 3095   0.517   1.611   3.180  0.1241 -1.2971 -0.6274
  986SOL     OW 3096   0.485   0.063   2.078 -0.3306  0.3574 -0.0616
  986SOL    HW1 3097   0.565   0.092   2.034 -0.6274  1.4597  0.0797
  986SOL    HW2 3098   0.424   0.136   2.067 -0.7931  0.1940  1.1977
  987SOL     OW 3099   0.900   0.341   0.325  0.0071 -0.0068  0.1003
  987SOL    HW1 3100   0.939   0.273   0.271 -1.8784 -1.1703  0.1223
  987SOL    HW2 3101   0.869   0.295   0.403  2.5398  1.5845  2.2456
  988SOL     OW 3102   0.783   3.661   3.212 -0.3304 -0.4283  0.4084
  988SOL    HW1 3103   0.865   3.661   3.163 -0.6108 -3.0802 -0.2281
  988SOL    HW2 3104   0.764   3.753   3.228  2.7573  0.2850  0.6110
  989SOL     OW 3105   0.429   2.764   1.201 -0.2536  0.2671 -0.0168
  989SOL    HW1 3106   0.367   2.823   1.245 -0.7293  0.1964 -0.5820
  989SOL    HW2 3107   0.507   2.817   1.186 -0.8889  0.9433 -1.0559
  990SOL     OW 3108   1.913   2.780   0.295 -0.2292 -0.1823  0.7309
  990SOL    HW1 3109   1.865   2.836   0.356 -1.3042 -1.7849  1.4370
  990SOL    HW2 3110   1.962   2.841   0.239  0.0875  1.3640  2.6073
  991SOL     OW 3111   1.797   1.974   2.025 -0.4306 -0.6705 -0.6597
  991SOL    HW1 3112   1.794   1.883   2.055 -0.0104  0.0333  1.7057
  991SOL    HW2 3113   1.709   2.008   2.039 -0.3395 -0.4409 -0.6306
  992SOL     OW 3114   1.611   3.529  -0.002 -0.0768 -0.6408 -0.2709
  992SOL    HW1 3115   1.627   3.437   0.020  0.5571 -0.5980 -0.5160
  992SOL    HW2 3116   1.677   3.577   0.049 -1.3470 -0.1858  1.0137
  993SOL     OW 3117   1.375   1.827   1.296 -0.1688  0.0510  0.5086
  993SOL    HW1 3118   1.422   1.909   1.286 -0.5352  0.2249  0.2002
  993SOL    HW2 3119   1.329   1.835   1.380  0.0438  0.0355  0.6256
  994SOL     OW 3120   0.241   1.006   0.170 -0.8255 -0.3751 -0.1741
  994SOL    HW1 3121   0.327   0.971   0.150 -1.7608 -1.3169 -2.9477
  994SOL    HW2 3122   0.240   1.093   0.130 -0.7774  0.1568  0.9355
  995SOL     OW 3123   0.140   2.295   0.797 -0.3910  0.1077  0.4802
  995SOL    HW1 3124   0.065   2.242   0.769 -1.7749  2.1560  0.0773
  995SOL    HW2 3125   0.217   2.242   0.777 -1.7053 -2.0128  0.7578
  996SOL     OW 3126   0.237   2.797   3.657  0.0859  0.1264  0.2222
  996SOL    HW1 3127   0.151   2.819   3.622 -0.4689  0.0974  1.5179
  996SOL    HW2 3128   0.240   2.841   3.742  1.8061  1.0710 -0.2849
  997SOL     OW 3129   0.324   3.284   1.096  0.8438 -0.3189  0.8629
  997SOL    HW1 3130   0.376   3.361   1.077  0.2168  0.0293  0.4997
  997SOL    HW2 3131   0.323   3.235   1.014  0.6189 -0.3310  0.8720
  998SOL     OW 3132   0.704   1.641   0.632  0.7028 -0.3326 -0.6866
  998SOL    HW1 3133   0.762   1.688   0.694  0.4110  0.0171 -0.6752
  998SOL    HW2 3134   0.691   1.555   0.672 -0.4663  0.3006  0.3601
  999SOL     OW 3135   2.238   3.532   3.192 -0.0363 -0.4232  0.4421
  999SOL    HW1 3136   2.214   3.483   3.113 -0.4665  0.7193 -0.1542
  999SOL    HW2 3137   2.261   3.619   3.160  0.6844 -0.2139  1.4919
 1000SOL     OW 3138   1.433   0.950   2.878 -0.8981  0.3970  0.4028
 1000SOL    HW1 3139   1.455   0.861   2.906  0.2401 -0.0378 -1.6674
 1000SOL    HW2 3140   1.473   1.007   2.945  0.2365 -0.6135  0.6154
 1001SOL     OW 3141   0.193   3.138   0.055 -0.1502 -0.3353 -0.1673
 1001SOL    HW1 3142   0.158   3.051   0.076  0.1622 -0.5144 -0.3651
 1001SOL    HW2 3143   0.119   3.186   0.019 -0.7468  0.0373  1.4638
 1002SOL     OW 3144   2.259   0.585   0.496 -0.7463 -0.1052 -0.1838
 1002SOL    HW1 3145   2.284   0.598   0.404  2.1346 -2.7835  0.0781
 1002SOL    HW2 3146   2.279   0.669   0.538  2.3216 -0.1796 -1.2439
 1003SOL     OW 3147   2.709   2.267   3.673  0.2964  0.6057  0.1694
 1003SOL    HW1 3148   2.789   2.215   3.675 -0.4376 -0.5511  0.9019
 1003SOL    HW2 3149   2.668   2.251   3.757  0.0744  2.4848  0.4651
 1004SOL     OW 3150   3.543   2.366   1.867  0.5895  0.0882 -0.1561
 1004SOL    HW1 3151   3.456   2.328   1.858  0.4707  0.4131 -0.3825
 1004SOL    HW2 3152   3.592   2.301   1.918 -0.1451  0.4696  1.0735
 1005SOL     OW 3153   3.430   1.767   2.691  0.2922  0.1718 -0.4931
 1005SOL    HW1 3154   3.480   1.799   2.767  0.2468 -1.6320  0.3293
 1005SOL    HW2 3155   3.414   1.675   2.710 -3.3725  0.6215 -0.7373
 1006SOL     OW 3156   3.397   0.733   1.000 -0.2518 -0.4582 -0.2241
 1006SOL    HW1 3157   3.484   0.711   0.966  0.7083  1.3371  0.9192
 1006SOL    HW2 3158   3.366   0.805   0.945  0.3852  1.0082  1.2480
 1007SOL     OW 3159   2.918   3.058   1.711 -0.2641 -0.3148 -0.4722
 1007SOL    HW1 3160   2.822   3.052   1.713 -0.2264 -0.8576  0.0708
 1007SOL    HW2 3161   2.946   2.980   1.662  0.0145 -1.9958  2.1429
 1008SOL     OW 3162   3.129   0.584   3.687 -0.2004 -0.6600 -0.3411
 1008SOL    HW1 3163   3.194   0.622   3.628 -1.4743  2.2967 -0.0319
 1008SOL    HW2 3164   3.046   0.592   3.640 -0.7465 -1.6535  0.4176
 1009SOL     OW 3165   1.809   0.729   1.876 -0.2921 -0.2813 -0.0798
 1009SOL    HW1 3166   1.835   0.767   1.792 -0.7294  0.9893  0.3505
 1009SOL    HW2 3167   1.716   0.708   1.866  0.3987 -3.4882 -1.1120
 1010SOL     OW 3168   0.934   0.069   2.705 -0.7330  0.0786 -0.2630
 1010SOL    HW1 3169   0.924   0.010   2.630 -0.4571 -0.5798  0.2054
 1010SOL    HW2 3170   0.857   0.125   2.702 -0.7421  0.0358 -1.0161
 1011SOL     OW 3171   2.790   1.337   3.407  0.0383  0.2540  0.1187
 1011SOL    HW1 3172   2.745   1.408   3.362 -0.6321 -0.3851 -0.2561
 1011SOL    HW2 3173   2.877   1.334   3.368 -1.4826 -2.4042 -3.7310
 1012SOL     OW 3174   3.166   0.323   2.710 -0.1288 -0.4841  0.1504
 1012SOL    HW1 3175   3.143   0.281   2.627  0.1490 -0.3825  0.0210
 1012SOL    HW2 3176   3.242   0.377   2.689 -0.5296  0.1414  0.3027
 1013SOL     OW 3177   0.928   1.809   2.477 -0.3798  0.7494  0.2331
 1013SOL    HW1 3178   0.835   1.811   2.458 -0.1827  0.9232 -0.7355
 1013SOL    HW2 3179   0.940   1.875   2.546 -0.7649  1.7481 -0.6344
 1014SOL     OW 3180   1.585   1.363   1.333  0.2989  0.3790 -0.3404
 1014SOL    HW1 3181   1.669   1.410   1.331  0.0144  1.1958  2.3112
 1014SOL    HW2 3182   1.534   1.402   1.262  2.0574  0.0115 -1.8787
 1015SOL     OW 3183   2.351   2.498   0.750 -0.6196 -0.0113 -0.0339
 1015SOL    HW1 3184   2.437   2.537   0.766 -0.7278  1.1730 -1.9580
 1015SOL    HW2 3185   2.370   2.411   0.716 -0.2790 -0.6088  1.6208
 1016SOL     OW 3186   1.897   2.187   2.508  0.0346  0.4188 -0.1053
 1016SOL    HW1 3187   1.823   2.233   2.469 -1.1236 -1.3827 -0.1374
 1016SOL    HW2 3188   1.965   2.188   2.441 -0.3621  1.1357 -0.4965
 1017SOL     OW 3189   3.046   0.390   3.031  0.8883 -0.0963  0.3347
 1017SOL    HW1 3190   2.998   0.407   2.950  0.3539  1.7503  1.0149
 1017SOL    HW2 3191   2.982   0.350   3.089  0.8206  0.1885  0.4514
 1018SOL     OW 3192   0.506   0.619   1.548  0.2499 -0.0589 -0.1911
 1018SOL    HW1 3193   0.578   0.681   1.550  0.9722 -0.8646 -0.6745
 1018SOL    HW2 3194   0.520   0.567   1.469  0.5569 -1.8727  0.9952
 1019SOL     OW 3195   0.663   1.567   1.899 -0.6022  0.4706 -0.1345
 1019SOL    HW1 3196   0.656   1.478   1.935 -1.0739  0.4111 -0.3647
 1019SOL    HW2 3197   0.755   1.591   1.912 -0.6676  0.2849  0.7114
 1020SOL     OW 3198   3.666   0.833   3.199  0.3225 -0.3515 -0.3860
 1020SOL    HW1 3199   3.733   0.900   3.185  1.0597 -0.7429  1.0416
 1020SOL    HW2 3200   3.610   0.868   3.268  1.8084 -1.8911  1.7275
 1021SOL     OW 3201   3.365   3.353   0.264  0.6809  0.2868  0.0876
 1021SOL    HW1 3202   3.275   3.330   0.241  1.0707 -0.7035 -0.5193
 1021SOL    HW2 3203   3.413   3.348   0.181  1.7397 -1.4515  0.7655
 1022SOL     OW 3204   2.549   1.488   0.906  0.1313  0.0699 -0.4939
 1022SOL    HW1 3205   2.470   1.531   0.875 -0.1470 -0.0511  0.0455
 1022SOL    HW2 3206   2.614   1.505   0.837  0.3936  2.3919  0.2519
 1023SOL     OW 3207   1.539   1.278   0.992 -0.2703  0.2246 -0.3348
 1023SOL    HW1 3208   1.495   1.345   1.044 -0.8467 -0.3141 -0.1073
 1023SOL    HW2 3209   1.478   1.204   0.994  1.0270 -0.8712  0.7416
 1024SOL     OW 3210   1.939   1.547   0.398  0.3309  0.1835  0.5083
 1024SOL    HW1 3211   1.992   1.509   0.468  0.4487 -0.5448  0.0357
 1024SOL    HW2 3212   1.978   1.514   0.318 -0.6492 -0.1093  0.1411
 1025SOL     OW 3213   3.702   3.644   2.561  0.4399 -0.0549 -0.0087
 1025SOL    HW1 3214   3.725   3.575   2.499 -0.7160  0.0305 -0.5481
 1025SOL    HW2 3215   3.638   3.604   2.620 -1.2697  0.8888 -1.1426
 1026SOL     OW 3216   2.596   1.980   0.096  0.1792 -0.1179 -0.7480
 1026SOL    HW1 3217   2.539   2.044   0.052 -0.5368 -2.0632 -2.8482
 1026SOL    HW2 3218   2.661   1.956   0.030  1.2236 -0.6113  0.4254
 1027SOL     OW 3219   3.444   2.542   2.861  0.2087  0.2041 -0.0849
 1027SOL    HW1 3220   3.476   2.627   2.889 -0.6806  0.5743 -0.1389
 1027SOL    HW2 3221   3.398   2.507   2.937  0.3980 -0.1438 -0.1260
 1028SOL     OW 3222   1.535   3.445   0.887  0.3566 -0.5211  0.3619
 1028SOL    HW1 3223   1.477   3.468   0.960  0.1976 -3.7723  1.4240
 1028SOL    HW2 3224   1.621   3.474   0.916 -0.3172  2.7887 -0.4890
 1029SOL     OW 3225   1.132   3.617   0.250  0.7706 -0.3243  0.4205
 1029SOL    HW1 3226   1.216   3.604   0.296  0.7485  0.3370  0.6652
 1029SOL    HW2 3227   1.143   3.571   0.167  2.3418  1.7851 -0.6640
 1030SOL     OW 3228   1.908   1.218   0.014 -0.6714  0.5303  0.0980
 1030SOL    HW1 3229   2.001   1.228  -0.006 -0.1488 -1.9277  0.9509
 1030SOL    HW2 3230   1.906   1.201   0.108 -1.8314 -0.8242 -0.1488
 1031SOL     OW 3231   1.300   2.282   2.103  0.1125 -0.1193 -0.7060
 1031SOL    HW1 3232   1.364   2.266   2.033 -0.2691 -1.1456 -0.8298
 1031SOL    HW2 3233   1.306   2.204   2.158 -1.5923 -0.6075 -1.1595
 1032SOL     OW 3234   0.055   0.655   0.354 -0.6919 -0.2315  0.2469
 1032SOL    HW1 3235   0.058   0.600   0.276 -2.2959  0.9418 -0.6805
 1032SOL    HW2 3236   0.148   0.670   0.376 -0.2309 -1.5653 -0.6979
 1033SOL     OW 3237   2.294   0.995   2.593  0.0924 -0.9472  0.1808
 1033SOL    HW1 3238   2.386   1.022   2.597 -0.3658  0.5788  2.3568
 1033SOL    HW2 3239   2.262   1.032   2.510  1.5274 -1.9984 -0.8921
 1034SOL     OW 3240   0.448   2.442   0.260 -0.8532 -0.0427  0.1345
 1034SOL    HW1 3241   0.446   2.530   0.223 -3.3836  0.6533  1.6549
 1034SOL    HW2 3242   0.360   2.430   0.296 -0.5824 -3.1962  0.0148
 1035SOL     OW 3243   0.641   0.932   0.486  0.4679  0.3184  0.1361
 1035SOL    HW1 3244   0.687   0.938   0.402  0.6927 -2.1713  0.0078
 1035SOL    HW2 3245   0.548   0.930   0.463  0.5574 -3.5206 -0.4545
 1036SOL     OW 3246   0.073   2.601   3.000  0.2461 -0.0059 -0.5242
 1036SOL    HW1 3247   0.151   2.567   2.955  0.1535 -0.4149 -0.3806
 1036SOL    HW2 3248   0.036   2.525   3.044 -1.0825 -0.1422 -1.8060
 1037SOL     OW 3249   0.225   0.613   1.552  0.3025  0.0035 -0.1049
 1037SOL    HW1 3250   0.197   0.523   1.569  0.0491 -0.2682 -1.7554
 1037SOL    HW2 3251   0.317   0.614   1.579  0.1576 -0.5891  0.4447
 1038SOL     OW 3252   1.341   1.717   0.970  0.0774 -0.2720 -0.3925
 1038SOL    HW1 3253   1.273   1.762   1.020  0.9871 -0.0814  0.7159
 1038SOL    HW2 3254   1.399   1.787   0.940 -0.5077 -0.3760 -1.8176
 1039SOL     OW 3255   2.453   1.711   2.044  0.4046  0.2361 -0.5456
 1039SOL    HW1 3256   2.508   1.633   2.050  0.6701  0.4652  0.0522
 1039SOL    HW2 3257   2.460   1.738   1.952 -0.4985 -1.0214 -1.0081
 1040SOL     OW 3258   0.990   0.132   0.187 -0.5145 -0.3955 -0.4360
 1040SOL    HW1 3259   0.959   0.159   0.100  1.7667  1.9070 -0.6448
 1040SOL    HW2 3260   1.045   0.055   0.170 -2.0395 -1.4987 -0.6406
 1041SOL     OW 3261   3.277   3.656   1.301 -0.2875  0.5468 -0.4895
 1041SOL    HW1 3262   3.191   3.699   1.292  0.2312  2.1210  1.3445
 1041SOL    HW2 3263   3.298   3.627   1.212 -3.0422 -0.6016 -0.8825
 1042SOL     OW 3264   0.409   0.172   2.914 -0.3728  0.0453  0.1138
 1042SOL    HW1 3265   0.404   0.144   2.823 -0.0864  1.2574 -0.2922
 1042SOL    HW2 3266   0.318   0.174   2.944 -0.7230  2.0416 -0.9268
 1043SOL     OW 3267   2.370   1.896   3.563  0.0056  0.3954  0.3096
 1043SOL    HW1 3268   2.352   1.905   3.470  0.6417  0.1047  0.1467
 1043SOL    HW2 3269   2.439   1.829   3.567 -0.7456 -0.3503  1.0610
 1044SOL     OW 3270   2.580   2.863   1.363  0.4505  0.3889 -0.0559
 1044SOL    HW1 3271   2.506   2.838   1.418  0.3837 -0.6267 -0.5846
 1044SOL    HW2 3272   2.541   2.886   1.279  0.8297 -2.2957 -1.0749
 1045SOL     OW 3273   0.975   0.965   3.075  0.2562 -0.2381  0.0105
 1045SOL    HW1 3274   0.942   0.930   2.993 -0.3174 -1.7996  0.8713
 1045SOL    HW2 3275   0.965   1.060   3.066 -2.2840 -0.5058 -0.7039
 1046SOL     OW 3276   0.408   2.669   3.142  0.9717  0.2229 -0.3240
 1046SOL    HW1 3277   0.372   2.639   3.226  0.6707 -0.4123 -0.6779
 1046SOL    HW2 3278   0.482   2.611   3.125  2.0479  1.3627  0.2736
 1047SOL     OW 3279   0.753   2.722   3.617  0.7897 -1.0441 -0.0142
 1047SOL    HW1 3280   0.764   2.681   3.703 -1.5787 -1.9681 -0.0788
 1047SOL    HW2 3281   0.661   2.749   3.615  1.0992  0.0339 -1.8168
 1048SOL     OW 3282   1.243   0.307   0.274  0.0443  0.2914  0.3473
 1048SOL    HW1 3283   1.166   0.255   0.251 -0.3319  0.4029  1.3022
 1048SOL    HW2 3284   1.235   0.387   0.222  0.3898 -0.3839 -0.7937
 1049SOL     OW 3285   1.800   3.504   2.752 -0.2698  0.2260 -0.8848
 1049SOL    HW1 3286   1.808   3.523   2.659 -1.0941 -0.2186 -1.0523
 1049SOL    HW2 3287   1.720   3.452   2.760  0.1613 -0.3362 -0.0150
 1050SOL     OW 3288   1.882   2.265   3.306 -0.2679 -0.2685 -0.3591
 1050SOL    HW1 3289   1.889   2.183   3.355 -0.6468 -0.6881 -1.0003
 1050SOL    HW2 3290   1.939   2.253   3.230 -0.5990 -0.0771 -0.6412
 1051SOL     OW 3291   0.159   2.896   0.784 -0.6605  0.5722 -0.7647
 1051SOL    HW1 3292   0.154   2.871   0.876  3.0443 -0.3040 -0.6284
 1051SOL    HW2 3293   0.135   2.816   0.736 -0.4607  0.3529 -0.5043
 1052SOL     OW 3294   3.390   0.907   2.424 -0.1440 -0.0393 -0.3216
 1052SOL    HW1 3295   3.394   0.985   2.478 -1.1039 -0.1391 -0.1016
 1052SOL    HW2 3296   3.417   0.936   2.337  0.5005  0.3109 -0.0109
 1053SOL     OW 3297   2.401   0.540   3.223  0.5132  0.1269 -0.6291
 1053SOL    HW1 3298   2.458   0.609   3.188 -0.7001  1.5492  0.0757
 1053SOL    HW2 3299   2.357   0.581   3.298  0.2431 -1.6432  0.2463
 1054SOL     OW 3300   1.389   0.686   2.626  0.2034 -0.2594  0.3990
 1054SOL    HW1 3301   1.326   0.754   2.602  0.4876 -0.2408 -0.3269
 1054SOL    HW2 3302   1.411   0.704   2.717 -0.1310  0.2977  0.3716
 1055SOL     OW 3303   2.009   3.384   0.116  0.2305  0.3811 -0.2703
 1055SOL    HW1 3304   1.977   3.322   0.050 -1.3374 -0.8631  1.5311
 1055SOL    HW2 3305   2.066   3.443   0.068  2.1400 -2.6711 -2.0698
 1056SOL     OW 3306   0.672   0.618   1.141  0.0127  0.1912  0.4628
 1056SOL    HW1 3307   0.752   0.581   1.103 -0.4720 -1.5284  1.0209
 1056SOL    HW2 3308   0.700   0.698   1.185  1.1948  0.2696 -0.3985
 1057SOL     OW 3309   3.251   3.065   2.543  0.1655 -0.4007  0.1551
 1057SOL    HW1 3310   3.182   3.106   2.491  1.1337  0.9114 -0.1391
 1057SOL    HW2 3311   3.289   2.999   2.484  0.5481  0.3355 -0.4333
 1058SOL     OW 3312   1.293   1.204   3.559  0.0815  0.4001 -0.0327
 1058SOL    HW1 3313   1.226   1.146   3.522  0.4178 -0.3135  0.4489
 1058SOL    HW2 3314   1.326   1.156   3.635  1.7521  0.3620 -0.7478
 1059SOL     OW 3315   0.867   1.933   1.419 -0.3520 -0.2645 -0.2062
 1059SOL    HW1 3316   0.942   1.914   1.364  0.9676 -1.2865  1.8082
 1059SOL    HW2 3317   0.856   1.854   1.472  0.4393  1.6279  3.1169
 1060SOL     OW 3318   3.514   1.367   0.433  0.0077  0.1007  0.0335
 1060SOL    HW1 3319   3.597   1.330   0.402  0.5881  1.6280 -0.3362
 1060SOL    HW2 3320   3.536   1.457   0.458 -0.9789 -0.2566  2.4885
 1061SOL     OW 3321   2.457   1.637   1.460 -0.0510 -0.2846 -0.0054
 1061SOL    HW1 3322   2.500   1.653   1.376 -0.3629 -0.0295 -0.1179
 1061SOL    HW2 3323   2.409   1.555   1.446 -1.9462  0.8791 -0.8305
 1062SOL     OW 3324   2.519   2.408   3.341 -0.7987 -0.0758 -0.6410
 1062SOL    HW1 3325   2.591   2.447   3.292 -1.6425  0.1008 -1.7731
 1062SOL    HW2 3326   2.551   2.321   3.365  0.9338  1.0548  1.5252
 1063SOL     OW 3327   2.485   0.764   0.832  0.0691 -0.3071  0.5254
 1063SOL    HW1 3328   2.498   0.819   0.756  0.0196 -0.8645  0.1041
 1063SOL    HW2 3329   2.572   0.754   0.871  0.5184 -1.8701 -0.7679
 1064SOL     OW 3330   2.801   2.743   0.922 -0.4224 -0.0243  0.0504
 1064SOL    HW1 3331   2.839   2.736   1.010  1.1946  0.3327 -0.5856
 1064SOL    HW2 3332   2.756   2.827   0.923 -1.1974 -0.4349  0.8134
 1065SOL     OW 3333   2.076   0.084   1.881 -0.7040 -0.4859  0.0670
 1065SOL    HW1 3334   2.017   0.149   1.919  1.1263  0.1533  2.0209
 1065SOL    HW2 3335   2.159   0.098   1.927  0.4951 -2.4727 -1.3532
 1066SOL     OW 3336   1.912   1.721   2.061  0.3274  0.7720 -0.2161
 1066SOL    HW1 3337   1.877   1.704   2.149  0.6549 -0.1595 -0.2585
 1066SOL    HW2 3338   1.909   1.637   2.017 -0.2165  1.3173 -1.2531
 1067SOL     OW 3339   1.817   1.238   0.936 -0.3120 -0.3736 -0.2920
 1067SOL    HW1 3340   1.726   1.241   0.966 -0.0037 -0.6967  0.7233
 1067SOL    HW2 3341   1.816   1.279   0.849 -1.1731  0.9628  0.3319
 1068SOL     OW 3342   1.348   2.417   1.204 -0.2773 -0.9363  0.4254
 1068SOL    HW1 3343   1.399   2.359   1.260 -1.1466 -0.6531  1.5281
 1068SOL    HW2 3344   1.300   2.473   1.264  0.0622  0.5342 -0.6078
 1069SOL     OW 3345   0.693   0.857   3.551 -0.0662 -0.2481 -0.4845
 1069SOL    HW1 3346   0.682   0.762   3.546 -0.0485 -0.2902  0.2182
 1069SOL    HW2 3347   0.758   0.878   3.483 -0.0968 -0.7325 -0.6620
 1070SOL     OW 3348   2.729   1.036   1.240  0.0633 -0.3427 -0.6514
 1070SOL    HW1 3349   2.727   0.984   1.320  0.9988 -0.1876 -0.5095
 1070SOL    HW2 3350   2.822   1.038   1.215 -0.0213  0.7859 -0.9487
 1071SOL     OW 3351   1.109   1.180   2.573 -0.0635 -0.1743 -0.5053
 1071SOL    HW1 3352   1.162   1.114   2.528 -0.1747  0.5550 -1.7499
 1071SOL    HW2 3353   1.027   1.183   2.523 -0.3004  0.4665 -0.0914
 1072SOL     OW 3354   3.452   2.193   0.583  1.0626 -0.2214  0.0001
 1072SOL    HW1 3355   3.419   2.198   0.493  1.8989 -1.7221 -0.4316
 1072SOL    HW2 3356   3.373   2.192   0.637  0.5659  1.5655 -0.6223
 1073SOL     OW 3357   1.115   3.648   3.307  0.3646  0.0666 -0.2627
 1073SOL    HW1 3358   1.074   3.727   3.341 -4.0099 -2.2444  0.5497
 1073SOL    HW2 3359   1.152   3.605   3.384  0.3518  0.0690 -0.2553
 1074SOL     OW 3360   2.704   3.744   1.617  0.1182 -0.1186  0.9541
 1074SOL    HW1 3361   2.621   3.705   1.590  0.1753  0.3990 -0.0360
 1074SOL    HW2 3362   2.770   3.698   1.564  0.0340  2.4543 -1.6185
 1075SOL     OW 3363   3.284   1.456   2.212 -0.1093  0.3769 -0.1602
 1075SOL    HW1 3364   3.362   1.402   2.197 -1.0177 -0.6674 -1.2960
 1075SOL    HW2 3365   3.284   1.472   2.306  0.0730 -1.8289  0.2688
 1076SOL     OW 3366   1.770   0.237   3.620 -0.5814 -0.0264  0.0216
 1076SOL    HW1 3367   1.771   0.143   3.605 -0.1906 -0.0101 -0.0776
 1076SOL    HW2 3368   1.754   0.275   3.533  1.3749  0.0581 -0.3561
 1077SOL     OW 3369   0.429   1.662   2.995 -0.2678 -0.5888  0.0746
 1077SOL    HW1 3370   0.350   1.655   3.048  0.1264 -0.8181  0.6429
 1077SOL    HW2 3371   0.468   1.745   3.022  0.7521 -1.4227  1.3204
 1078SOL     OW 3372   0.996   0.640   2.545  0.3694  0.6736 -0.1140
 1078SOL    HW1 3373   0.920   0.645   2.604 -1.2269 -1.2213 -1.8543
 1078SOL    HW2 3374   1.033   0.553   2.563 -0.6369 -0.2876 -2.3540
 1079SOL     OW 3375   1.818   1.653   2.579  0.1364 -0.3129  0.1563
 1079SOL    HW1 3376   1.811   1.732   2.525 -1.1422 -1.1720 -0.9903
 1079SOL    HW2 3377   1.760   1.670   2.653  0.4333  0.1118  0.2947
 1080SOL     OW 3378   1.181   0.818   0.456  0.4384 -0.7535  0.5484
 1080SOL    HW1 3379   1.244   0.856   0.395  0.1338 -0.6679  0.2890
 1080SOL    HW2 3380   1.232   0.752   0.504  1.1066  0.3053  1.3602
 1081SOL     OW 3381   1.053   1.511   2.969  0.1122 -0.0749 -0.4064
 1081SOL    HW1 3382   1.061   1.599   2.933  1.2588  0.7743  1.6853
 1081SOL    HW2 3383   1.136   1.468   2.947  0.6069  0.2780  0.6486
 1082SOL     OW 3384   2.351   3.027   0.535 -0.2560 -0.1732  0.4814
 1082SOL    HW1 3385   2.372   3.118   0.513 -0.2362 -0.3342 -0.1823
 1082SOL    HW2 3386   2.256   3.027   0.547 -0.2972 -0.1310  0.1615
 1083SOL     OW 3387   1.446   0.412   3.668  0.3278  0.1696  0.1331
 1083SOL    HW1 3388   1.491   0.429   3.751 -0.6426  1.1483  0.4732
 1083SOL    HW2 3389   1.403   0.327   3.682 -1.1013  1.0127  1.2413
 1084SOL     OW 3390   2.470   0.146   1.461  0.2683  0.0903  0.8025
 1084SOL    HW1 3391   2.446   0.057   1.437  1.1138  0.1491 -0.3438
 1084SOL    HW2 3392   2.545   0.167   1.405 -2.4910  3.0596 -2.2208
 1085SOL     OW 3393   3.478   3.244   0.022  1.0441  0.2713  0.3708
 1085SOL    HW1 3394   3.557   3.287  -0.008  1.5029 -0.2861  0.7537
 1085SOL    HW2 3395   3.509   3.163   0.064  0.3773  0.6547  1.6498
 1086SOL     OW 3396   2.434   3.055   1.880  0.2302  0.2245  0.2633
 1086SOL    HW1 3397   2.452   3.107   1.958  0.1016  0.4754  0.1298
 1086SOL    HW2 3398   2.383   3.114   1.824 -1.3209 -0.5671  0.7787
 1087SOL     OW 3399   2.446   1.149   0.176 -0.5178  0.2614 -0.4537
 1087SOL    HW1 3400   2.448   1.149   0.080 -1.8086 -0.4564 -0.5044
 1087SOL    HW2 3401   2.414   1.062   0.200  0.0729  0.3282  0.6436
 1088SOL     OW 3402   1.771   3.546   1.250  0.5956 -0.5840 -0.2545
 1088SOL    HW1 3403   1.854   3.518   1.289  1.1837  0.2801 -0.8603
 1088SOL    HW2 3404   1.742   3.619   1.305  0.1586 -0.9784  0.0436
 1089SOL     OW 3405   2.312   2.504   3.498 -0.5173  0.1932 -0.3475
 1089SOL    HW1 3406   2.391   2.474   3.455 -0.6699 -0.2393 -0.3267
 1089SOL    HW2 3407   2.300   2.445   3.572 -0.0994  1.1006  0.4755
 1090SOL     OW 3408   0.338   0.985   1.952  0.0803 -0.0154  0.8228
 1090SOL    HW1 3409   0.333   1.079   1.937  0.0241  0.0513  1.2558
 1090SOL    HW2 3410   0.376   0.950   1.871 -1.6319  0.1581 -0.0920
 1091SOL     OW 3411   0.977   2.239   2.397 -0.6680  0.0232  0.5242
 1091SOL    HW1 3412   0.953   2.324   2.363 -0.3185  0.1479  0.5844
 1091SOL    HW2 3413   1.055   2.255   2.450  1.3183 -0.7908 -1.9576
 1092SOL     OW 3414   1.410   0.975   1.721  0.0758 -0.6434 -0.2972
 1092SOL    HW1 3415   1.500   0.945   1.735  0.7752  1.4388  0.1378
 1092SOL    HW2 3416   1.364   0.899   1.686  1.6436 -2.1889  0.7996
 1093SOL     OW 3417   0.523   3.265   3.246  0.2267 -0.3518  0.6622
 1093SOL    HW1 3418   0.483   3.349   3.224  0.6926  0.1438  1.6555
 1093SOL    HW2 3419   0.601   3.260   3.191  1.4616  0.9439  2.1956
 1094SOL     OW 3420   1.195   3.307   1.280  0.5614  0.2041 -0.3578
 1094SOL    HW1 3421   1.244   3.278   1.357  0.5186 -2.2005 -1.1512
 1094SOL    HW2 3422   1.108   3.328   1.314 -0.0359 -2.6309  0.0784
 1095SOL     OW 3423   0.612   0.316   1.263 -0.0559 -0.0869 -0.6517
 1095SOL    HW1 3424   0.518   0.298   1.263 -0.3145  1.1934 -0.1383
 1095SOL    HW2 3425   0.652   0.232   1.286 -1.0056 -0.8740 -1.7456
 1096SOL     OW 3426   1.607   1.195   1.614 -0.2410  0.0509  0.4851
 1096SOL    HW1 3427   1.548   1.122   1.635 -2.1201  1.5020  0.4596
 1096SOL    HW2 3428   1.624   1.186   1.521 -2.8427  1.2252 -0.1846
 1097SOL     OW 3429   3.227   2.854   1.628  0.3356  0.7235  0.2517
 1097SOL    HW1 3430   3.259   2.921   1.689 -1.2278  2.6601 -0.9581
 1097SOL    HW2 3431   3.156   2.811   1.676  0.4574  0.8405  0.5429
 1098SOL     OW 3432   3.345   0.099   0.626 -0.3376  1.1491  0.4244
 1098SOL    HW1 3433   3.297   0.017   0.617 -1.5219  1.8164  0.5135
 1098SOL    HW2 3434   3.360   0.128   0.536  3.0327 -0.7548  0.1788
 1099SOL     OW 3435   2.058   1.416   3.582 -0.8251 -0.0322  0.1585
 1099SOL    HW1 3436   2.066   1.391   3.490 -0.0358 -1.7750  0.6787
 1099SOL    HW2 3437   1.974   1.462   3.586 -0.5430  0.7216 -1.5483
 1100SOL     OW 3438   0.390   0.358   0.927 -1.3353 -0.0323  0.0380
 1100SOL    HW1 3439   0.321   0.361   0.860 -1.2228 -0.0143 -0.0792
 1100SOL    HW2 3440   0.404   0.450   0.951  0.9246  0.3588 -2.3167
 1101SOL     OW 3441   0.075   0.344   1.991  0.0036 -0.1114 -0.5273
 1101SOL    HW1 3442   0.004   0.308   2.045 -0.8906  0.8501 -1.0305
 1101SOL    HW2 3443   0.037   0.352   1.904  0.9340 -0.1452 -0.9437
 1102SOL     OW 3444   0.416   2.714   0.198 -0.3108 -0.5437  0.0047
 1102SOL    HW1 3445   0.358   2.785   0.227  1.1508  1.0424 -0.7328
 1102SOL    HW2 3446   0.456   2.748   0.117  0.5732 -2.1526 -0.2664
 1103SOL     OW 3447   0.662   0.174   3.229 -0.0080  0.6618 -0.6035
 1103SOL    HW1 3448   0.585   0.213   3.186 -0.7907  2.0167  1.8500
 1103SOL    HW2 3449   0.727   0.244   3.230  0.6987  0.0322 -1.2203
 1104SOL     OW 3450   1.383   1.446   1.553 -0.1306  0.2420  0.2829
 1104SOL    HW1 3451   1.458   1.424   1.498  1.3522 -2.4052  3.0779
 1104SOL    HW2 3452   1.313   1.388   1.523  0.2781 -0.2992  0.3621
 1105SOL     OW 3453   1.145   1.937   1.447 -0.6793 -0.0617 -0.1786
 1105SOL    HW1 3454   1.079   1.971   1.509 -1.1630  2.8825 -2.1115
 1105SOL    HW2 3455   1.223   1.989   1.465 -0.5445  0.1692 -1.3481
 1106SOL     OW 3456   1.262   2.703   0.757 -0.1249 -0.1312 -0.3671
 1106SOL    HW1 3457   1.244   2.781   0.810 -1.1129 -1.1992  0.9564
 1106SOL    HW2 3458   1.306   2.643   0.817 -0.7524 -1.1680 -0.9172
 1107SOL     OW 3459   3.507   3.694   3.141 -0.1266 -0.1558 -0.5487
 1107SOL    HW1 3460   3.593   3.689   3.099 -0.3925  0.3657 -1.1717
 1107SOL    HW2 3461   3.447   3.714   3.069 -0.8473 -1.0387 -0.2139
 1108SOL     OW 3462   1.802   2.721   1.996  0.3381 -0.0970 -0.3028
 1108SOL    HW1 3463   1.846   2.721   2.081  0.1154  0.3621 -0.1877
 1108SOL    HW2 3464   1.748   2.800   1.996 -0.2020 -0.4619 -0.5924
 1109SOL     OW 3465   2.439   1.469   2.913 -0.4020 -0.4087  0.8011
 1109SOL    HW1 3466   2.404   1.404   2.852 -1.9708 -0.0334  1.2462
 1109SOL    HW2 3467   2.468   1.541   2.857 -0.0309 -0.8719  0.3912
 1110SOL     OW 3468   2.329   2.005   3.318  0.1678 -0.3216  0.3706
 1110SOL    HW1 3469   2.403   2.021   3.259  0.4851  0.4687  0.9722
 1110SOL    HW2 3470   2.258   1.978   3.260 -0.1523  2.4016 -0.6699
 1111SOL     OW 3471   1.736   0.289   3.301  0.6361  0.7426  0.0521
 1111SOL    HW1 3472   1.711   0.235   3.226 -0.0241  1.0900  0.0196
 1111SOL    HW2 3473   1.689   0.371   3.288  0.2923  0.7031  0.9987
 1112SOL     OW 3474   2.511   1.861   3.078  0.5656 -0.1099  0.3091
 1112SOL    HW1 3475   2.553   1.918   3.014  0.6650  0.0015  0.4725
 1112SOL    HW2 3476   2.582   1.830   3.134  0.5779 -0.7746 -0.0675
 1113SOL     OW 3477   2.428   3.285   1.353  0.7396 -0.3759 -0.0038
 1113SOL    HW1 3478   2.471   3.294   1.438  1.3311  2.5122 -0.4870
 1113SOL    HW2 3479   2.351   3.341   1.359  1.4544  0.8772 -1.6936
 1114SOL     OW 3480   3.571   1.987   1.158  0.0775 -0.4358 -0.7586
 1114SOL    HW1 3481   3.498   1.947   1.205 -1.0617  0.8364 -1.3239
 1114SOL    HW2 3482   3.613   2.044   1.222  2.2750 -3.0692  0.3062
 1115SOL     OW 3483   2.751   0.609   0.723 -0.0280 -0.2133 -0.1397
 1115SOL    HW1 3484   2.822   0.673   0.722  0.1660 -0.3550  1.4063
 1115SOL    HW2 3485   2.756   0.570   0.810 -0.2635 -2.1972 -0.9552
 1116SOL     OW 3486   2.539   1.123   2.681  0.2475 -0.1676 -1.0663
 1116SOL    HW1 3487   2.614   1.167   2.722  2.1297 -2.9531 -1.2386
 1116SOL    HW2 3488   2.529   1.042   2.731 -0.2689 -1.5698 -3.3176
 1117SOL     OW 3489   2.988   2.516   2.396 -0.4688 -0.2530  0.7471
 1117SOL    HW1 3490   2.961   2.441   2.343 -0.3442 -1.4583  2.3197
 1117SOL    HW2 3491   3.041   2.478   2.465 -1.5721  1.1001  2.4127
 1118SOL     OW 3492   1.649   0.084   2.803  0.7062  0.5436 -0.1538
 1118SOL    HW1 3493   1.568   0.037   2.825  1.4739 -0.4475  0.6224
 1118SOL    HW2 3494   1.717   0.039   2.853  2.2418 -0.4841 -2.9513
 1119SOL     OW 3495   3.575   0.478   1.083 -0.2979  0.0111  0.8729
 1119SOL    HW1 3496   3.619   0.494   1.166 -0.6140 -0.0247  1.0479
 1119SOL    HW2 3497   3.583   0.561   1.036  0.7351 -0.2588  0.5321
 1120SOL     OW 3498   2.089   3.216   3.254 -0.1079  0.0750 -0.0435
 1120SOL    HW1 3499   2.134   3.280   3.309  0.0740 -0.2775  0.2219
 1120SOL    HW2 3500   2.081   3.259   3.168  2.8077 -0.6910 -0.8025
 1121SOL     OW 3501   2.706   1.282   2.816 -0.3770  0.0181  0.2646
 1121SOL    HW1 3502   2.658   1.331   2.883 -1.2641 -0.0163 -0.3245
 1121SOL    HW2 3503   2.788   1.257   2.858 -1.3318 -0.8723  1.6675
 1122SOL     OW 3504   0.725   0.233   2.667 -0.0551  0.1374 -0.4708
 1122SOL    HW1 3505   0.710   0.279   2.585 -2.1495 -2.1850 -1.5539
 1122SOL    HW2 3506   0.642   0.188   2.684  0.8326 -0.7044  2.1131
 1123SOL     OW 3507   0.181   1.703   2.710  0.4197  0.1893 -0.1183
 1123SOL    HW1 3508   0.188   1.754   2.791  2.9493 -1.6605  1.0001
 1123SOL    HW2 3509   0.255   1.733   2.658  1.0020 -1.1619 -0.1076
 1124SOL     OW 3510   0.806   1.700   3.421 -0.4935 -0.0450 -0.2801
 1124SOL    HW1 3511   0.775   1.716   3.332 -0.1925  1.4538 -0.1451
 1124SOL    HW2 3512   0.746   1.635   3.456 -0.8985 -0.3137 -1.4156
 1125SOL     OW 3513   2.820   0.056   2.427 -0.3772 -0.1857 -0.6133
 1125SOL    HW1 3514   2.915   0.059   2.435 -0.1899 -3.5101 -0.5267
 1125SOL    HW2 3515   2.790   0.126   2.485  1.9569  1.2378 -0.9635
 1126SOL     OW 3516   3.464   1.340   3.402  0.0003  0.6398 -0.4424
 1126SOL    HW1 3517   3.473   1.283   3.478  0.1568  1.3270  0.0698
 1126SOL    HW2 3518   3.531   1.309   3.341  0.9410  1.0334  0.3387
 1127SOL     OW 3519   0.459   0.530   0.238 -0.6410  0.2245 -0.5261
 1127SOL    HW1 3520   0.545   0.500   0.270 -0.8241 -0.5329 -0.7117
 1127SOL    HW2 3521   0.474   0.618   0.205  0.4726 -0.5332 -2.1868
 1128SOL     OW 3522   0.679   3.173   1.152  0.5187  0.6564  0.1922
 1128SOL    HW1 3523   0.774   3.160   1.159  0.6851  2.2778  1.9164
 1128SOL    HW2 3524   0.665   3.198   1.061  1.3955 -1.7369 -0.6680
 1129SOL     OW 3525   3.104   1.795   2.978 -0.3370 -0.3725  0.2323
 1129SOL    HW1 3526   3.021   1.822   2.938 -0.4077 -0.7556  0.1161
 1129SOL    HW2 3527   3.142   1.876   3.011  0.0137  0.0479 -1.1552
 1130SOL     OW 3528   3.516   2.944   0.042 -0.4380 -0.1265 -0.3331
 1130SOL    HW1 3529   3.438   2.947  -0.014 -0.7108 -1.0964 -0.0229
 1130SOL    HW2 3530   3.571   2.876   0.004  0.3146  0.6190 -0.6057
 1131SOL     OW 3531   3.081   0.775   1.169  0.4663 -0.6624 -0.0151
 1131SOL    HW1 3532   3.167   0.812   1.191  0.0346 -0.7894  2.1070
 1131SOL    HW2 3533   3.023   0.851   1.163  0.0676 -0.7508  1.9910
 1132SOL     OW 3534   2.781   3.150   1.427  0.4315  0.7568  0.2291
 1132SOL    HW1 3535   2.867   3.190   1.442  0.5826  0.8509 -0.8422
 1132SOL    HW2 3536   2.747   3.134   1.515  2.1881 -0.7026  0.7083
 1133SOL     OW 3537   1.221   0.389   0.819  0.4971 -0.3181 -0.2317
 1133SOL    HW1 3538   1.301   0.379   0.768  2.0508  1.5505  1.6407
 1133SOL    HW2 3539   1.194   0.480   0.803  2.3001  1.1533  3.6951
 1134SOL     OW 3540   3.276   3.105   1.443 -0.3511  0.3209 -0.6999
 1134SOL    HW1 3541   3.240   3.016   1.446 -1.3788  0.7441 -0.2867
 1134SOL    HW2 3542   3.207   3.161   1.479  1.6561  0.8637  2.8263
 1135SOL     OW 3543   3.020   2.781   2.317  0.2510  0.3365  0.3678
 1135SOL    HW1 3544   3.035   2.687   2.316 -0.0715  0.2872 -0.4288
 1135SOL    HW2 3545   2.954   2.794   2.385  1.4258  0.1799  1.5741
 1136SOL     OW 3546   2.340   2.816   0.766  0.4290  0.1209  0.2410
 1136SOL    HW1 3547   2.257   2.777   0.795  0.6393 -0.9490 -0.5161
 1136SOL    HW2 3548   2.314   2.883   0.703  0.1211 -0.3770 -0.1828
 1137SOL     OW 3549   2.280   3.327   1.800  0.3316 -0.5560  0.5418
 1137SOL    HW1 3550   2.230   3.330   1.882  1.4660 -1.9793  1.3342
 1137SOL    HW2 3551   2.363   3.369   1.822 -0.0949  0.9105 -0.4971
 1138SOL     OW 3552   0.026   2.151   1.294  0.2977 -0.6454 -0.4045
 1138SOL    HW1 3553   0.047   2.092   1.367  1.5258  0.5425  0.2612
 1138SOL    HW2 3554   0.106   2.203   1.283 -0.6205  0.6368 -1.1994
 1139SOL     OW 3555   0.549   2.503   3.580 -0.4906 -0.4051  0.3365
 1139SOL    HW1 3556   0.562   2.598   3.578  1.5415 -0.6444  0.4745
 1139SOL    HW2 3557   0.455   2.493   3.593 -0.8596  1.5757 -0.3545
 1140SOL     OW 3558   1.955   3.191   0.677  0.0502 -0.4999  0.1542
 1140SOL    HW1 3559   2.004   3.219   0.755  0.3323  2.4016 -0.9452
 1140SOL    HW2 3560   1.884   3.254   0.669 -2.8019 -3.4068  0.5171
 1141SOL     OW 3561   0.226   3.114   2.382 -0.0774  0.2674  0.3223
 1141SOL    HW1 3562   0.284   3.115   2.306 -1.4526  1.3265 -0.7743
 1141SOL    HW2 3563   0.267   3.174   2.444 -1.2635  3.2219 -1.5344
 1142SOL     OW 3564   3.477   2.458   0.124  0.0269 -0.6851  0.2355
 1142SOL    HW1 3565   3.399   2.511   0.104  0.0162 -0.6848  0.2771
 1142SOL    HW2 3566   3.447   2.368   0.116 -0.2756 -0.7022  1.3469
 1143SOL     OW 3567   3.568   2.001   0.419  0.0566 -0.0272  0.2548
 1143SOL    HW1 3568   3.567   2.094   0.441 -1.7442 -0.1862  0.9707
 1143SOL    HW2 3569   3.551   1.957   0.503 -3.6563 -0.7961 -0.7507
 1144SOL     OW 3570   3.172   1.253   1.978  0.4490 -0.6655 -0.1038
 1144SOL    HW1 3571   3.165   1.331   1.923 -2.9119 -0.4978  0.4051
 1144SOL    HW2 3572   3.194   1.286   2.065  2.4714 -0.6583 -0.5690
 1145SOL     OW 3573   1.775   3.125   0.994 -0.0617 -0.1546  0.1377
 1145SOL    HW1 3574   1.766   3.137   0.899 -0.5279 -0.1080  0.1828
 1145SOL    HW2 3575   1.839   3.056   1.004  1.5136  1.2056 -0.1674
 1146SOL     OW 3576   1.206   3.416   0.095 -0.4241  0.1239  0.3988
 1146SOL    HW1 3577   1.266   3.381   0.030 -1.8565 -2.1928  0.1849
 1146SOL    HW2 3578   1.119   3.389   0.065 -1.2354 -0.0080  2.6240
 1147SOL     OW 3579   0.704   2.962   2.917 -0.0999  0.3586 -0.5688
 1147SOL    HW1 3580   0.741   2.875   2.901  2.7990  1.4935 -0.6156
 1147SOL    HW2 3581   0.689   2.964   3.012 -0.7361 -0.3551 -0.6419
 1148SOL     OW 3582   2.997   1.862   1.028  0.4447 -0.0339  0.3991
 1148SOL    HW1 3583   3.006   1.921   1.102 -0.9548  0.0125  0.5558
 1148SOL    HW2 3584   2.914   1.887   0.987 -0.6865 -2.4537  1.0329
 1149SOL     OW 3585   1.872   1.314   3.004  0.5449  0.6335  0.1467
 1149SOL    HW1 3586   1.844   1.333   2.914  0.7797 -0.2446 -0.1208
 1149SOL    HW2 3587   1.817   1.371   3.059 -0.8935 -0.1423 -0.4397
 1150SOL     OW 3588   1.646   1.909   3.316  0.0069  0.1264 -0.1597
 1150SOL    HW1 3589   1.697   1.980   3.355 -1.6798  1.7784 -0.8121
 1150SOL    HW2 3590   1.632   1.848   3.388  1.5466  0.3806  0.4079
 1151SOL     OW 3591   1.162   0.277   1.969  0.5139  0.1026  0.0046
 1151SOL    HW1 3592   1.246   0.231   1.980  0.8905  0.3235 -1.6127
 1151SOL    HW2 3593   1.096   0.209   1.978  0.8531 -0.0550  1.4209
 1152SOL     OW 3594   3.144   2.738   3.627 -0.2455 -0.1941 -0.1944
 1152SOL    HW1 3595   3.097   2.659   3.651  0.2810 -0.5228 -0.2376
 1152SOL    HW2 3596   3.207   2.710   3.560  1.6763 -0.2591  1.5476
 1153SOL     OW 3597   1.956   0.745   1.241 -0.4785 -0.3167 -0.3274
 1153SOL    HW1 3598   1.903   0.761   1.163 -1.5143  1.5573  0.7056
 1153SOL    HW2 3599   2.006   0.666   1.220 -1.2132 -0.2346 -2.6157
 1154SOL     OW 3600   0.319   1.382   2.125  0.3538 -0.1717 -0.4142
 1154SOL    HW1 3601   0.361   1.467   2.113  1.8448 -0.9934 -1.3341
 1154SOL    HW2 3602   0.226   1.403   2.133  0.8791  1.7268  1.7245
 1155SOL     OW 3603   2.543   3.238   2.921  0.2475 -0.3556  0.3017
 1155SOL    HW1 3604   2.508   3.276   3.001 -1.8072 -1.5741  0.0492
 1155SOL    HW2 3605   2.543   3.144   2.937  0.1854 -0.5939 -0.9727
 1156SOL     OW 3606   2.816   1.344   2.557 -0.4104  0.5066  0.4025
 1156SOL    HW1 3607   2.780   1.353   2.645  2.3100 -1.0213  1.8123
 1156SOL    HW2 3608   2.764   1.276   2.516  0.7542 -1.7799  2.4367
 1157SOL     OW 3609   2.916   0.289   3.244  0.4984  0.7305  0.5671
 1157SOL    HW1 3610   2.899   0.195   3.253  2.0910  0.6461  4.8385
 1157SOL    HW2 3611   2.836   0.330   3.277  1.1286  0.7544  2.1090
 1158SOL     OW 3612   2.454   0.493   1.113  0.3376  0.4862 -0.8160
 1158SOL    HW1 3613   2.450   0.442   1.194  0.3602  2.5585  0.5588
 1158SOL    HW2 3614   2.362   0.506   1.089  0.3188  0.3899 -0.7986
 1159SOL     OW 3615   0.862   0.224   0.689 -0.1631 -0.2182 -0.0343
 1159SOL    HW1 3616   0.773   0.191   0.704 -0.5335 -0.2959 -2.0994
 1159SOL    HW2 3617   0.850   0.317   0.669  0.4923  0.3385  1.9811
 1160SOL     OW 3618   2.017   3.014   2.877  0.1001  0.5915  0.4267
 1160SOL    HW1 3619   2.035   3.108   2.883 -0.1318  0.6709 -0.1034
 1160SOL    HW2 3620   1.944   2.999   2.938  0.1495  0.7492  0.5249
 1161SOL     OW 3621   1.261   3.048   3.045 -0.4570 -0.3423 -0.0327
 1161SOL    HW1 3622   1.247   3.048   3.140  0.6155  1.5070  0.1950
 1161SOL    HW2 3623   1.176   3.025   3.008 -2.1272  2.9493  1.3377
 1162SOL     OW 3624   0.787   3.609   0.175  0.1586 -0.3292 -0.2448
 1162SOL    HW1 3625   0.784   3.691   0.226  1.5430 -0.7278  0.5181
 1162SOL    HW2 3626   0.697   3.576   0.179  0.1187 -0.1194  1.6196
 1163SOL     OW 3627   2.282   0.331   1.301  0.0630 -1.1054  0.0220
 1163SOL    HW1 3628   2.226   0.408   1.302 -0.3537 -1.3986 -0.3003
 1163SOL    HW2 3629   2.260   0.285   1.383  0.1160 -1.0214  0.0836
 1164SOL     OW 3630   0.988   2.794   1.086 -0.0773 -0.7280 -0.3374
 1164SOL    HW1 3631   0.959   2.884   1.100  1.1133 -0.1686 -1.2323
 1164SOL    HW2 3632   0.994   2.785   0.991 -0.3325 -1.8168 -0.2662
 1165SOL     OW 3633   3.090   0.237   2.462  0.6536  0.1145 -0.2706
 1165SOL    HW1 3634   3.087   0.205   2.372 -1.1207  1.1506 -0.6175
 1165SOL    HW2 3635   3.037   0.316   2.462 -2.2011 -1.5615  2.3333
 1166SOL     OW 3636   0.742   0.980   0.237 -0.8111  0.1407  0.2204
 1166SOL    HW1 3637   0.800   1.046   0.275  0.5029 -1.4427  1.1082
 1166SOL    HW2 3638   0.759   0.985   0.143  0.7739 -0.2232  0.4514
 1167SOL     OW 3639   3.272   3.597   2.076  0.8090 -0.0643  0.5787
 1167SOL    HW1 3640   3.263   3.647   1.995 -1.4309 -0.9740  0.1903
 1167SOL    HW2 3641   3.349   3.634   2.119  1.9918  0.5091 -1.8875
 1168SOL     OW 3642   2.265   0.159   0.292 -0.3388 -0.7525 -0.0880
 1168SOL    HW1 3643   2.286   0.101   0.365 -0.7253 -0.4360  0.2814
 1168SOL    HW2 3644   2.333   0.226   0.294  0.1221 -1.1960 -0.5301
 1169SOL     OW 3645   1.153   1.774   3.417 -0.4603  0.4514  0.7420
 1169SOL    HW1 3646   1.114   1.714   3.353 -0.7430  0.2277  1.1177
 1169SOL    HW2 3647   1.078   1.814   3.461 -0.2686  0.2091  1.2975
 1170SOL     OW 3648   0.772   2.804   0.859  0.1003 -0.0686  0.1014
 1170SOL    HW1 3649   0.693   2.827   0.811 -0.4097 -1.0820  0.4172
 1170SOL    HW2 3650   0.743   2.791   0.949  0.6525 -0.3115  0.2538
 1171SOL     OW 3651   2.946   1.555   2.265 -0.3677  0.3172  0.1270
 1171SOL    HW1 3652   2.949   1.523   2.175  3.8305  0.6259 -0.0630
 1171SOL    HW2 3653   2.986   1.485   2.316  2.1752  2.1207  0.8107
 1172SOL     OW 3654   0.118   2.803   3.214 -0.5154 -0.4164 -0.0266
 1172SOL    HW1 3655   0.159   2.887   3.194 -0.4745 -0.8480 -1.9975
 1172SOL    HW2 3656   0.113   2.758   3.129 -1.0671 -2.1680  0.8813
 1173SOL     OW 3657   0.129   1.273   2.351  0.1067  0.0441 -0.4159
 1173SOL    HW1 3658   0.107   1.234   2.436 -1.0896 -1.0456 -1.1706
 1173SOL    HW2 3659   0.222   1.254   2.339  0.5864  1.2240  1.1244
 1174SOL     OW 3660   0.448   2.126   3.331 -0.3856  0.3147  0.3759
 1174SOL    HW1 3661   0.531   2.156   3.293 -0.9675  1.5168 -0.0127
 1174SOL    HW2 3662   0.456   2.146   3.424 -0.1409  0.1864  0.3837
 1175SOL     OW 3663   1.087   3.222   2.532  0.2645 -0.2960  0.2214
 1175SOL    HW1 3664   1.154   3.179   2.586  0.4718  1.6744  1.6376
 1175SOL    HW2 3665   1.059   3.297   2.584  1.1423  2.3203 -2.7474
 1176SOL     OW 3666   3.349   3.632   0.189  0.1905 -0.5434  0.5806
 1176SOL    HW1 3667   3.255   3.646   0.200  0.1746 -0.4865  0.3676
 1176SOL    HW2 3668   3.369   3.562   0.251 -0.6662 -3.1103 -1.7863
 1177SOL     OW 3669   0.007   1.160   2.107  0.3493  0.2024  0.2536
 1177SOL    HW1 3670   0.040   1.171   2.196 -1.0820 -1.4737  1.0398
 1177SOL    HW2 3671   0.047   1.079   2.077 -0.4482 -0.0894 -0.0281
 1178SOL     OW 3672   3.421   0.452   0.816  0.1980 -0.1515  0.0693
 1178SOL    HW1 3673   3.338   0.500   0.824 -0.6805 -1.8498  1.9060
 1178SOL    HW2 3674   3.433   0.411   0.901  2.5647 -0.6037 -0.4137
 1179SOL     OW 3675   1.153   2.665   0.510  0.3911 -0.4179 -0.2768
 1179SOL    HW1 3676   1.197   2.673   0.594 -0.4502  0.8061  0.0709
 1179SOL    HW2 3677   1.178   2.745   0.462  1.0376 -1.1976 -1.2891
 1180SOL     OW 3678   3.328   2.108   2.803 -0.1785 -0.0734 -0.4788
 1180SOL    HW1 3679   3.411   2.153   2.820 -1.3448  1.5429  1.2033
 1180SOL    HW2 3680   3.283   2.163   2.739  0.3415 -1.4037 -2.0669
 1181SOL     OW 3681   2.893   0.621   0.310  0.8144 -0.0342 -0.3012
 1181SOL    HW1 3682   2.934   0.571   0.381  1.8614  0.4673 -0.5304
 1181SOL    HW2 3683   2.939   0.705   0.311  0.0989  0.3718 -0.8824
 1182SOL     OW 3684   1.599   2.004   2.234  0.0677  0.3777  0.4034
 1182SOL    HW1 3685   1.564   1.921   2.203 -1.8585 -0.3683  3.9393
 1182SOL    HW2 3686   1.525   2.065   2.230  0.0567  0.5448  2.1471
 1183SOL     OW 3687   3.037   1.159   0.913  0.5850  0.1442 -0.0398
 1183SOL    HW1 3688   2.947   1.127   0.915 -0.2431  2.2225 -0.6661
 1183SOL    HW2 3689   3.047   1.197   0.825  1.5846  1.1893  0.4844
 1184SOL     OW 3690   0.295   2.461   3.643  0.0866  0.6173 -0.1546
 1184SOL    HW1 3691   0.260   2.487   3.728 -0.4930  0.3833 -0.3131
 1184SOL    HW2 3692   0.220   2.468   3.584  0.1305 -0.5473 -0.3755
 1185SOL     OW 3693   1.468   1.410   0.318  0.5273 -0.4510  0.0388
 1185SOL    HW1 3694   1.550   1.449   0.349  0.2976  1.6107 -1.7030
 1185SOL    HW2 3695   1.419   1.389   0.398  2.0416 -0.1325  1.0764
 1186SOL     OW 3696   0.577   2.676   2.372 -0.4105  0.3234 -0.3764
 1186SOL    HW1 3697   0.514   2.611   2.341 -0.1821 -0.5852  1.0045
 1186SOL    HW2 3698   0.525   2.755   2.385 -0.7408  0.3773 -1.8105
 1187SOL     OW 3699   1.104   1.643   2.630 -0.7915 -0.2980  0.4214
 1187SOL    HW1 3700   1.119   1.697   2.708  4.3935  0.2318 -0.5313
 1187SOL    HW2 3701   1.060   1.702   2.568 -1.7951  0.4111  1.7697
 1188SOL     OW 3702   3.310   1.870   0.583  0.7348 -0.1124  0.0275
 1188SOL    HW1 3703   3.253   1.806   0.627 -0.1623  1.3444  1.0988
 1188SOL    HW2 3704   3.311   1.842   0.491 -0.0175 -1.3768  0.3731
 1189SOL     OW 3705   2.210   3.167   3.718 -0.1816 -0.2170  0.1183
 1189SOL    HW1 3706   2.159   3.100   3.764  0.1593 -1.3018 -1.0092
 1189SOL    HW2 3707   2.184   3.158   3.626  1.9327 -0.7564 -0.4774
 1190SOL     OW 3708   3.693   2.832   3.598 -0.4236 -0.4570  0.1172
 1190SOL    HW1 3709   3.683   2.768   3.527  1.2829  0.4046 -0.9540
 1190SOL    HW2 3710   3.673   2.916   3.557  1.0882  0.1076  0.4822
 1191SOL     OW 3711   2.907   2.073   1.984  0.3153  0.4523 -0.3808
 1191SOL    HW1 3712   2.841   2.138   2.009  0.4516  0.5358 -0.2359
 1191SOL    HW2 3713   2.858   1.992   1.973 -0.1139  0.9068 -2.0794
 1192SOL     OW 3714   0.356   0.048   3.637 -0.2040 -0.6805  0.2116
 1192SOL    HW1 3715   0.261   0.037   3.632 -0.0887 -1.7396  0.0259
 1192SOL    HW2 3716   0.375   0.046   3.731 -0.3008 -1.1849  0.2254
 1193SOL     OW 3717   2.431   2.375   2.611 -0.4804  0.0089 -1.0833
 1193SOL    HW1 3718   2.358   2.329   2.569  0.5649 -1.3930 -1.4157
 1193SOL    HW2 3719   2.484   2.408   2.539 -0.7425  0.9877 -0.8413
 1194SOL     OW 3720   3.639   3.326   3.245  0.5509 -0.2481 -0.1216
 1194SOL    HW1 3721   3.556   3.345   3.201 -0.6194 -1.5689  1.3684
 1194SOL    HW2 3722   3.696   3.292   3.176 -0.9821 -1.5996 -0.7915
 1195SOL     OW 3723   1.931   1.732   3.495 -1.0061  0.0691 -0.9190
 1195SOL    HW1 3724   1.872   1.658   3.509 -0.9789 -0.4750 -3.2566
 1195SOL    HW2 3725   1.953   1.728   3.402  0.8903  1.6371 -0.6114
 1196SOL     OW 3726   2.880   0.727   3.091  0.1962  0.1734 -0.0823
 1196SOL    HW1 3727   2.808   0.781   3.059  0.5946  0.1270 -1.0968
 1196SOL    HW2 3728   2.957   0.783   3.085  0.4297 -0.1466 -0.1093
 1197SOL     OW 3729   2.055   2.824   2.119 -0.3489  0.0206 -0.1122
 1197SOL    HW1 3730   2.048   2.856   2.029  0.1685  0.2000 -0.0863
 1197SOL    HW2 3731   2.129   2.871   2.157  0.0887 -0.8039  0.0914
 1198SOL     OW 3732   1.482   0.523   1.256 -0.1810  0.2671 -0.1162
 1198SOL    HW1 3733   1.458   0.432   1.238  0.2617 -0.2169  1.5847
 1198SOL    HW2 3734   1.410   0.557   1.308  0.6604  0.1865  1.1464
 1199SOL     OW 3735   2.284   3.746   3.473  0.4199  0.1668  0.1484
 1199SOL    HW1 3736   2.256   3.663   3.513  0.6661  0.9186  1.9749
 1199SOL    HW2 3737   2.216   3.765   3.408  0.7278 -1.7959 -0.8076
 1200SOL     OW 3738   1.456   0.150   1.395 -0.1098 -0.2031  0.0360
 1200SOL    HW1 3739   1.460   0.195   1.479 -0.5935  1.4648 -0.7911
 1200SOL    HW2 3740   1.485   0.061   1.414 -0.4097  0.0767  1.9916
 1201SOL     OW 3741   1.403   0.178   1.722  0.6937 -0.1238 -0.1882
 1201SOL    HW1 3742   1.456   0.102   1.699  0.4915 -0.2918 -0.1069
 1201SOL    HW2 3743   1.315   0.156   1.692  0.4053 -0.3854  0.8249
 1202SOL     OW 3744   2.829   2.752   1.200  0.2090  1.0676 -0.2685
 1202SOL    HW1 3745   2.741   2.783   1.221  0.2043  1.0841 -0.3119
 1202SOL    HW2 3746   2.884   2.788   1.269  0.0424  0.3021  0.2778
 1203SOL     OW 3747   3.523   2.941   2.458 -0.0999  0.2401 -0.0240
 1203SOL    HW1 3748   3.495   2.855   2.425 -0.5769  0.2550  0.3215
 1203SOL    HW2 3749   3.599   2.963   2.405 -0.6783  0.1434 -0.9368
 1204SOL     OW 3750   0.057   1.846   1.996  0.4954 -0.1874  0.1192
 1204SOL    HW1 3751   0.109   1.839   1.916 -0.9871  2.0567 -1.1597
 1204SOL    HW2 3752  -0.034   1.833   1.967  0.0046 -0.3956  1.6475
 1205SOL     OW 3753   1.206   0.254   2.361  0.3948  0.5132 -0.1149
 1205SOL    HW1 3754   1.245   0.311   2.294 -0.8581  0.9326 -0.5206
 1205SOL    HW2 3755   1.114   0.250   2.338 -0.4506  2.0602  2.5243
 1206SOL     OW 3756   2.988   3.653   1.697 -0.3953 -0.0573  0.3445
 1206SOL    HW1 3757   2.953   3.739   1.671 -0.5278 -0.0442  0.5627
 1206SOL    HW2 3758   3.052   3.673   1.765  0.1313 -0.0723 -0.1493
 1207SOL     OW 3759   2.675   1.467   0.427 -0.4681 -0.2609  0.3662
 1207SOL    HW1 3760   2.749   1.527   0.423 -1.0670  0.4178 -1.2123
 1207SOL    HW2 3761   2.673   1.424   0.342 -1.3529 -0.9307  0.7019
 1208SOL     OW 3762   3.261   1.268   0.442 -0.8687  0.4519 -0.6793
 1208SOL    HW1 3763   3.350   1.303   0.441 -1.0630  1.0871  0.8879
 1208SOL    HW2 3764   3.206   1.343   0.417 -1.0598  0.4772 -0.1967
 1209SOL     OW 3765   0.638   0.297   0.993  0.3398 -0.4326  0.3292
 1209SOL    HW1 3766   0.548   0.312   0.962  0.3665  1.3853  1.0088
 1209SOL    HW2 3767   0.640   0.335   1.080  2.4139  1.9777 -0.6473
 1210SOL     OW 3768   1.851   2.198   1.223  0.3794  0.2078 -0.1502
 1210SOL    HW1 3769   1.827   2.119   1.272  0.1989  0.9106  0.9356
 1210SOL    HW2 3770   1.813   2.269   1.274  0.1588  0.9744 -1.3540
 1211SOL     OW 3771   1.612   1.855   1.516  0.2301  0.2960 -0.2559
 1211SOL    HW1 3772   1.680   1.921   1.530 -0.3881  1.0910 -0.9756
 1211SOL    HW2 3773   1.650   1.796   1.451  1.0024 -0.4148  0.7842
 1212SOL     OW 3774   1.620   0.517   0.457 -0.2093  0.3827 -0.0181
 1212SOL    HW1 3775   1.657   0.430   0.446 -2.9538 -0.7036 -1.6473
 1212SOL    HW2 3776   1.663   0.552   0.535  1.3430 -2.2188  0.3901
 1213SOL     OW 3777   2.859   1.119   0.107  0.3171  0.0446 -0.1610
 1213SOL    HW1 3778   2.925   1.084   0.046  2.3300 -0.3552  2.0863
 1213SOL    HW2 3779   2.818   1.190   0.059  2.9160  0.7870 -1.4822
 1214SOL     OW 3780   2.198   0.340   2.181 -0.1216  0.0517 -0.0976
 1214SOL    HW1 3781   2.178   0.288   2.103  1.3170 -0.6661 -0.0046
 1214SOL    HW2 3782   2.116   0.338   2.232 -1.3174  1.1031 -1.8673
 1215SOL     OW 3783   1.485   2.795   0.550 -0.2469  0.1993 -0.0474
 1215SOL    HW1 3784   1.432   2.868   0.582 -5.6943 -2.3205 -2.1330
 1215SOL    HW2 3785   1.484   2.731   0.622  1.2092  0.5844  0.3529
 1216SOL     OW 3786   2.407   3.523   1.110 -0.0402 -1.0529 -0.4526
 1216SOL    HW1 3787   2.343   3.464   1.150 -1.7825  1.4775  0.7252
 1216SOL    HW2 3788   2.355   3.596   1.076  2.0832  0.2920 -1.0132
 1217SOL     OW 3789   3.426   0.050   2.675 -0.3089  0.0437  0.3450
 1217SOL    HW1 3790   3.461   0.089   2.595 -3.6445 -0.6405 -1.6300
 1217SOL    HW2 3791   3.464  -0.038   2.677 -0.7758 -0.2096 -0.9606
 1218SOL     OW 3792   1.662   0.192   1.094  0.4292 -0.2276 -0.2109
 1218SOL    HW1 3793   1.673   0.231   1.181 -1.2529  1.2118 -0.5768
 1218SOL    HW2 3794   1.635   0.102   1.112 -2.5958  0.7562  0.9450
 1219SOL     OW 3795   0.422   0.032   2.343  0.2005  0.2678 -0.2291
 1219SOL    HW1 3796   0.500   0.037   2.288  0.8442 -0.6912  0.5748
 1219SOL    HW2 3797   0.395  -0.059   2.339 -1.4520  0.7468 -1.2297
 1220SOL     OW 3798   1.590   2.380   0.648  0.6174 -0.2903 -0.3423
 1220SOL    HW1 3799   1.497   2.382   0.625  0.3520 -1.0481  0.6116
 1220SOL    HW2 3800   1.603   2.460   0.700  0.3180 -0.5599  0.1569
 1221SOL     OW 3801   3.039   2.069   2.204 -0.2649  0.0384  0.1933
 1221SOL    HW1 3802   3.093   1.997   2.171  0.0898  1.1038 -1.6676
 1221SOL    HW2 3803   2.985   2.095   2.130  0.2527  2.2712  0.5324
 1222SOL     OW 3804   3.547   1.592   2.356 -0.0025  0.2552  0.4513
 1222SOL    HW1 3805   3.535   1.523   2.292 -1.3755  2.4251 -1.8329
 1222SOL    HW2 3806   3.489   1.568   2.429 -1.6594 -0.2776 -0.9743
 1223SOL     OW 3807   2.015   3.138   3.505 -0.5796 -0.1496 -0.0982
 1223SOL    HW1 3808   2.050   3.157   3.417 -1.2834 -0.0237 -0.3542
 1223SOL    HW2 3809   2.015   3.042   3.510 -3.4828 -0.3336 -1.4905
 1224SOL     OW 3810   3.118   0.640   1.430  0.4576 -0.2437 -0.6485
 1224SOL    HW1 3811   3.029   0.669   1.452  0.5659 -1.3932  1.5538
 1224SOL    HW2 3812   3.124   0.652   1.335 -2.1456 -0.4191 -0.9090
 1225SOL     OW 3813   0.527   2.834   0.742  0.2061  0.3114 -0.1458
 1225SOL    HW1 3814   0.489   2.778   0.810 -0.5937  0.6058 -0.3477
 1225SOL    HW2 3815   0.498   2.923   0.765  0.4901  0.4972 -0.4951
 1226SOL     OW 3816   2.057   0.680   2.909 -1.1109  0.6442  0.6769
 1226SOL    HW1 3817   2.055   0.695   2.815 -0.5476 -0.0767  0.5454
 1226SOL    HW2 3818   1.969   0.702   2.939 -1.7983 -0.7014 -0.2651
 1227SOL     OW 3819   0.812   2.985   1.716  0.0501 -0.8983  0.1819
 1227SOL    HW1 3820   0.813   2.950   1.805 -3.6441  0.0505  0.7748
 1227SOL    HW2 3821   0.814   2.907   1.660  1.3579 -1.5528  1.0850
 1228SOL     OW 3822   1.811   2.425   1.369 -0.0863 -0.1455  0.0780
 1228SOL    HW1 3823   1.886   2.476   1.400 -0.7938  0.9983 -0.0213
 1228SOL    HW2 3824   1.735   2.481   1.388 -0.6652  0.0091 -2.4160
 1229SOL     OW 3825   3.297   3.036   3.344 -0.1683 -0.9554 -0.1740
 1229SOL    HW1 3826   3.306   3.126   3.376  0.5061 -0.8944 -0.5056
 1229SOL    HW2 3827   3.221   3.039   3.285 -1.0183 -0.9262  0.8986
 1230SOL     OW 3828   3.392   1.608   3.372  0.2903 -0.0328  0.0418
 1230SOL    HW1 3829   3.408   1.610   3.277 -0.4188 -1.6883 -0.1518
 1230SOL    HW2 3830   3.414   1.519   3.398  1.8631  0.7856  1.7338
 1231SOL     OW 3831   1.683   0.822   2.454 -0.1520  0.2648 -0.0256
 1231SOL    HW1 3832   1.654   0.843   2.543  1.5248 -1.2064  0.9346
 1231SOL    HW2 3833   1.758   0.879   2.439  0.3289 -0.3427  0.0150
 1232SOL     OW 3834   1.248   1.816   0.285  0.0707  0.0973  0.2637
 1232SOL    HW1 3835   1.175   1.838   0.227  1.3511 -2.5800 -2.6701
 1232SOL    HW2 3836   1.312   1.886   0.271 -0.2077  0.2052 -0.5035
 1233SOL     OW 3837   3.248   3.010   0.197 -0.5476 -0.4935  0.7153
 1233SOL    HW1 3838   3.249   2.971   0.110 -1.3601 -0.7753  0.8215
 1233SOL    HW2 3839   3.170   3.065   0.198 -0.0360  0.2451  0.9580
 1234SOL     OW 3840   0.487   2.156   1.154 -0.3092 -0.4928 -0.4156
 1234SOL    HW1 3841   0.536   2.179   1.233 -0.8961 -2.2136  0.4882
 1234SOL    HW2 3842   0.546   2.178   1.082  0.4004  0.7253  0.5037
 1235SOL     OW 3843   0.394   0.203   1.432  0.3185 -0.0817 -0.1202
 1235SOL    HW1 3844   0.426   0.179   1.344  0.3699  1.3468 -0.5137
 1235SOL    HW2 3845   0.364   0.293   1.422 -1.5316 -0.5534  0.8653
 1236SOL     OW 3846   1.208   1.983   3.682  0.2644 -0.5131  0.5410
 1236SOL    HW1 3847   1.223   1.992   3.588  0.0902 -0.9829  0.4651
 1236SOL    HW2 3848   1.212   1.889   3.698  3.3419 -0.3076  1.5143
 1237SOL     OW 3849   1.634   0.475   2.849 -0.2422  0.1592  0.3938
 1237SOL    HW1 3850   1.663   0.438   2.765  1.1531  0.6974  0.6105
 1237SOL    HW2 3851   1.579   0.407   2.887 -2.1431  0.4487 -1.5774
 1238SOL     OW 3852   1.689   0.991   0.791 -0.5454  0.4815  0.3267
 1238SOL    HW1 3853   1.664   0.962   0.704 -0.7215 -1.4347  0.9692
 1238SOL    HW2 3854   1.784   0.988   0.792 -0.5687 -1.7517  0.8561
 1239SOL     OW 3855   0.043   0.736   2.596 -0.5728  0.8538  0.3614
 1239SOL    HW1 3856  -0.041   0.690   2.585 -1.4344  2.5009 -0.2610
 1239SOL    HW2 3857   0.035   0.813   2.539  1.5282  0.8407 -0.0088
 1240SOL     OW 3858   3.173   1.821   2.667 -0.1131 -0.0570  0.4393
 1240SOL    HW1 3859   3.260   1.792   2.692 -0.1346 -2.0224 -1.5745
 1240SOL    HW2 3860   3.132   1.745   2.627 -1.1754  1.9614 -2.6415
 1241SOL     OW 3861   0.021   2.060   3.397 -0.2971 -0.3058 -0.0167
 1241SOL    HW1 3862   0.083   2.058   3.470  0.0469  1.0887 -0.2402
 1241SOL    HW2 3863  -0.054   2.109   3.430 -1.1726 -1.7242  0.1505
 1242SOL     OW 3864   0.697   1.429   3.454 -0.4048  0.4211 -0.1987
 1242SOL    HW1 3865   0.663   1.400   3.369 -0.3183  0.5946 -0.2930
 1242SOL    HW2 3866   0.779   1.381   3.464 -1.4972 -1.3675  0.8368
 1243SOL     OW 3867   3.044   1.401   3.592 -0.1978  0.0298  0.2422
 1243SOL    HW1 3868   3.042   1.306   3.607  0.2026 -0.2411 -1.3227
 1243SOL    HW2 3869   3.119   1.432   3.642  1.1495 -0.8546 -1.1712
 1244SOL     OW 3870   0.729   2.121   1.867  0.7617 -0.2772  0.9042
 1244SOL    HW1 3871   0.810   2.173   1.866 -0.3718  1.5695 -0.2181
 1244SOL    HW2 3872   0.757   2.034   1.838  2.4373  0.1498  1.0861
 1245SOL     OW 3873   3.128   0.854   3.049 -0.1284  0.0463  0.0349
 1245SOL    HW1 3874   3.170   0.917   3.108  0.6969 -1.0282  0.6196
 1245SOL    HW2 3875   3.188   0.780   3.046 -2.4113 -2.0440  1.7650
 1246SOL     OW 3876   1.857   1.018   2.816 -0.2243 -0.7144 -0.1959
 1246SOL    HW1 3877   1.886   1.057   2.734  0.1049 -0.9985 -0.2168
 1246SOL    HW2 3878   1.935   0.978   2.854 -0.7160 -2.1941 -0.6502
 1247SOL     OW 3879   2.110   2.586   0.254  0.1316  0.1886  0.2661
 1247SOL    HW1 3880   2.161   2.552   0.327 -2.5748 -0.7183  1.8941
 1247SOL    HW2 3881   2.054   2.653   0.293 -2.0259 -0.9345 -0.7265
 1248SOL     OW 3882   0.607   0.018   1.001  0.4536 -0.2767 -0.3473
 1248SOL    HW1 3883   0.578   0.013   1.092 -0.7350  0.6553 -0.6504
 1248SOL    HW2 3884   0.654   0.102   0.995 -0.3838  0.1772 -0.8146
 1249SOL     OW 3885   3.079   1.731   1.425  0.2099  0.4419 -0.4250
 1249SOL    HW1 3886   3.047   1.769   1.507 -0.6333  0.3266 -0.6865
 1249SOL    HW2 3887   3.113   1.645   1.450  2.0178  1.2682  0.1515
 1250SOL     OW 3888   0.014   1.413   1.580 -0.4189 -0.9792  0.9089
 1250SOL    HW1 3889  -0.029   1.349   1.636  1.1998 -2.3181  0.7171
 1250SOL    HW2 3890   0.092   1.440   1.629  1.0014 -2.1348 -0.5722
 1251SOL     OW 3891   0.448   2.384   0.761 -0.2343  0.2166  0.2554
 1251SOL    HW1 3892   0.364   2.428   0.750  0.5239  1.6375 -0.0417
 1251SOL    HW2 3893   0.485   2.381   0.673  1.0364  1.7288  0.6922
 1252SOL     OW 3894   2.312   2.799   1.423  0.5389 -0.5925  0.4171
 1252SOL    HW1 3895   2.288   2.712   1.391 -1.8264 -0.6327  2.0418
 1252SOL    HW2 3896   2.282   2.859   1.355  0.3297 -0.9357  0.2029
 1253SOL     OW 3897   1.558   1.832   1.781 -0.6157  0.1135  0.2505
 1253SOL    HW1 3898   1.615   1.757   1.798  0.9736  1.0564 -0.7019
 1253SOL    HW2 3899   1.580   1.859   1.692 -0.5755  2.2118  0.8491
 1254SOL     OW 3900   1.189   0.134   0.823  0.7058 -0.0367  0.0846
 1254SOL    HW1 3901   1.205   0.229   0.817  2.2538 -0.1801  1.3682
 1254SOL    HW2 3902   1.266   0.094   0.783  0.5540 -0.7608  0.5091
 1255SOL     OW 3903   2.966   0.585   1.003 -0.5711  0.3493  0.4345
 1255SOL    HW1 3904   2.994   0.631   1.082 -0.1932 -1.4235  1.3805
 1255SOL    HW2 3905   2.872   0.570   1.016 -0.5169  0.0933  0.5413
 1256SOL     OW 3906   2.729   1.573   1.979  0.6112 -0.1282 -0.2379
 1256SOL    HW1 3907   2.800   1.515   2.008 -0.1660 -1.0506 -0.1503
 1256SOL    HW2 3908   2.651   1.518   1.979 -0.3578  1.2034  0.8986
 1257SOL     OW 3909   1.731   1.685   1.338  0.0171  1.0298 -0.1760
 1257SOL    HW1 3910   1.744   1.637   1.420 -1.8514  0.0464 -0.4149
 1257SOL    HW2 3911   1.804   1.657   1.283  0.4614  0.5616  0.6259
 1258SOL     OW 3912   0.370   1.821   2.530  0.3908  0.5985 -0.6361
 1258SOL    HW1 3913   0.322   1.904   2.521  1.5428  1.1364 -2.3723
 1258SOL    HW2 3914   0.425   1.817   2.452  0.6294 -1.6610 -0.4167
 1259SOL     OW 3915   0.946   3.089   1.162 -0.2159  0.2350  0.2844
 1259SOL    HW1 3916   1.027   3.115   1.205 -1.3053 -0.2067  2.7768
 1259SOL    HW2 3917   0.961   3.106   1.069  2.1344  1.6322  0.8507
 1260SOL     OW 3918   1.209   0.039   1.596 -0.0494 -0.5138  0.6166
 1260SOL    HW1 3919   1.177  -0.050   1.604 -0.3724 -0.2272  3.1069
 1260SOL    HW2 3920   1.145   0.083   1.539  0.7768 -2.0798 -1.6795
 1261SOL     OW 3921   2.810   1.614   3.162 -0.1181  0.0946 -0.8848
 1261SOL    HW1 3922   2.814   1.649   3.073  0.1553  1.2092 -0.4510
 1261SOL    HW2 3923   2.755   1.536   3.155 -0.0223  0.1158 -2.0392
 1262SOL     OW 3924   0.183   3.703   0.793  0.1457 -0.0072 -0.3970
 1262SOL    HW1 3925   0.184   3.687   0.888  0.6769  1.5367 -0.1149
 1262SOL    HW2 3926   0.098   3.743   0.776  0.8922  1.7605 -0.1697
 1263SOL     OW 3927   1.068   1.697   2.195  0.3777  0.7031 -0.6358
 1263SOL    HW1 3928   1.004   1.628   2.176  0.3472  0.8944 -1.2186
 1263SOL    HW2 3929   1.024   1.752   2.260  0.3741  0.2178 -0.2170
 1264SOL     OW 3930   0.412   0.063   0.164 -0.0883  0.1778 -0.7115
 1264SOL    HW1 3931   0.405  -0.014   0.221  0.8555 -0.5050 -1.4974
 1264SOL    HW2 3932   0.478   0.118   0.206  0.5671 -0.2999 -1.1087
 1265SOL     OW 3933   1.926   2.261   0.292  0.0059 -0.4071  0.7152
 1265SOL    HW1 3934   1.964   2.285   0.207 -0.5081 -0.2914  0.5133
 1265SOL    HW2 3935   2.000   2.230   0.343  0.2543 -0.8865  0.0760
 1266SOL     OW 3936   3.368   1.495   0.714  0.4281  0.2855 -0.2860
 1266SOL    HW1 3937   3.416   1.412   0.705  0.1040 -0.2513  2.1703
 1266SOL    HW2 3938   3.396   1.530   0.798 -1.7654  1.1017  0.1759
 1267SOL     OW 3939   3.048   1.551   2.695 -0.0522 -0.1096 -0.6082
 1267SOL    HW1 3940   3.055   1.457   2.680 -2.2376 -0.6009  1.0184
 1267SOL    HW2 3941   3.080   1.564   2.784 -2.1305  0.2073  0.1661
 1268SOL     OW 3942   0.875   3.730   2.976 -0.5942 -0.0720  0.0794
 1268SOL    HW1 3943   0.783   3.706   2.986 -0.4029 -1.0323 -0.3725
 1268SOL    HW2 3944   0.885   3.749   2.883 -0.3881  0.2883  0.1738
 1269SOL     OW 3945   0.286   2.011   2.178 -0.5863  0.2501 -0.1356
 1269SOL    HW1 3946   0.191   1.999   2.186 -0.2770 -1.4631  1.8949
 1269SOL    HW2 3947   0.315   1.940   2.121 -0.6598  1.8666 -2.3183
 1270SOL     OW 3948   3.716   1.376   1.931  0.1394 -0.1402 -0.3136
 1270SOL    HW1 3949   3.726   1.294   1.979 -0.2360  0.1078  0.1979
 1270SOL    HW2 3950   3.670   1.352   1.851 -0.6735 -0.3229  0.1893
 1271SOL     OW 3951   3.226   3.559   1.552 -0.0259 -0.0450  0.0107
 1271SOL    HW1 3952   3.232   3.607   1.470 -0.1666 -1.6157 -0.9539
 1271SOL    HW2 3953   3.147   3.592   1.594 -0.0008  0.7073 -0.5101
 1272SOL     OW 3954   1.500   1.127   2.568  0.2767  0.4228  0.7624
 1272SOL    HW1 3955   1.412   1.091   2.560  0.7823 -0.5019 -1.2726
 1272SOL    HW2 3956   1.549   1.058   2.613  0.0365  0.8384  1.6800
 1273SOL     OW 3957   1.728   3.378   1.562 -0.1933  0.2944 -0.2092
 1273SOL    HW1 3958   1.658   3.341   1.616 -0.5253  0.3918 -0.5770
 1273SOL    HW2 3959   1.701   3.362   1.472  0.6536 -0.4165 -0.3581
 1274SOL     OW 3960   0.196   1.843   2.946  0.0324 -0.2483  0.5302
 1274SOL    HW1 3961   0.224   1.806   3.030  1.8117  0.8217  0.4382
 1274SOL    HW2 3962   0.221   1.935   2.950  1.8281 -0.5312 -1.8235
 1275SOL     OW 3963   0.039   3.671   3.038  0.4689 -0.4257  0.1744
 1275SOL    HW1 3964   0.066   3.690   2.948 -0.2600 -1.3501 -0.2664
 1275SOL    HW2 3965   0.120   3.649   3.083  1.2481  2.7142  0.5178
 1276SOL     OW 3966   3.671   1.641   3.179 -0.2464 -0.0282 -0.1395
 1276SOL    HW1 3967   3.698   1.733   3.184  2.6269 -0.8082  0.4655
 1276SOL    HW2 3968   3.653   1.616   3.270 -0.8245 -0.1410 -0.2791
 1277SOL     OW 3969   2.934   2.803   1.524 -0.6511  0.0665  0.2372
 1277SOL    HW1 3970   2.952   2.865   1.454  2.0390  0.5048  1.1936
 1277SOL    HW2 3971   2.957   2.718   1.487 -1.2568  0.0206 -0.0494
 1278SOL     OW 3972   3.318   0.938   3.649 -0.1733  0.0688 -0.0292
 1278SOL    HW1 3973   3.229   0.906   3.634 -0.5777  1.2287 -0.1881
 1278SOL    HW2 3974   3.358   0.870   3.704 -1.9859  0.7367  2.2984
 1279SOL     OW 3975   0.999   2.838   3.554  0.4917  0.0654  0.1449
 1279SOL    HW1 3976   0.909   2.805   3.558  0.0692  0.6678 -2.2914
 1279SOL    HW2 3977   0.991   2.922   3.508  2.2741  0.2280  0.0735
 1280SOL     OW 3978   2.079   2.378   1.110  0.0337 -0.2225 -0.0068
 1280SOL    HW1 3979   2.155   2.358   1.164  1.5873 -4.1924 -3.1494
 1280SOL    HW2 3980   2.025   2.299   1.113 -1.8291  0.9183 -1.1653
 1281SOL     OW 3981   3.209   2.026   3.050  0.1945  0.4177 -0.1400
 1281SOL    HW1 3982   3.245   2.044   2.963 -0.4139 -0.3854 -0.5812
 1281SOL    HW2 3983   3.207   2.110   3.094  3.9714  0.3428  0.4865
 1282SOL     OW 3984   2.479   1.847   0.577 -0.0179 -0.0610 -0.3909
 1282SOL    HW1 3985   2.557   1.878   0.531  0.1352 -2.2847 -1.7507
 1282SOL    HW2 3986   2.416   1.827   0.508 -1.2407  0.2408  0.6048
 1283SOL     OW 3987   3.592   1.214   3.204 -0.5225 -0.5986 -0.3093
 1283SOL    HW1 3988   3.666   1.271   3.181  1.4423 -2.7518  0.2017
 1283SOL    HW2 3989   3.547   1.198   3.122  0.6791 -0.6506 -0.9853
 1284SOL     OW 3990   1.056   2.491   2.323  0.0165 -0.3425 -0.1429
 1284SOL    HW1 3991   1.087   2.577   2.351  1.0507 -0.2748 -1.4139
 1284SOL    HW2 3992   0.982   2.510   2.265  0.7250 -0.2338 -1.0464
 1285SOL     OW 3993   1.382   2.845   2.438 -0.3636 -0.1900 -0.6365
 1285SOL    HW1 3994   1.360   2.829   2.530  0.0892 -0.1036 -0.5114
 1285SOL    HW2 3995   1.461   2.793   2.423 -0.3466 -0.0778 -0.9349
 1286SOL     OW 3996   2.619   3.140   2.218  0.1028  0.0874 -0.4198
 1286SOL    HW1 3997   2.661   3.173   2.297  1.1536 -0.3629 -0.7651
 1286SOL    HW2 3998   2.691   3.132   2.155 -0.2812 -1.8283 -0.6675
 1287SOL     OW 3999   0.202   0.868   2.183  0.5147 -0.5567 -0.6730
 1287SOL    HW1 4000   0.141   0.794   2.177 -1.9445  1.1132  1.4856
 1287SOL    HW2 4001   0.204   0.904   2.094 -1.0215 -1.1526 -0.9825
 1288SOL     OW 4002   2.462   0.525   2.644 -0.1938  0.6192  0.5741
 1288SOL    HW1 4003   2.463   0.546   2.737  0.8758  1.3899  0.4025
 1288SOL    HW2 4004   2.372   0.541   2.616 -0.7473 -0.4730  1.6470
 1289SOL     OW 4005   3.086   1.782   2.340 -0.4569  0.3221 -0.3432
 1289SOL    HW1 4006   3.027   1.713   2.310 -0.4928  0.1937  0.0167
 1289SOL    HW2 4007   3.151   1.790   2.269 -1.3932  1.0669 -1.1371
 1290SOL     OW 4008   3.622   0.945   2.782 -0.3000 -0.1439 -0.1239
 1290SOL    HW1 4009   3.717   0.950   2.776 -0.3928  0.8213 -1.1718
 1290SOL    HW2 4010   3.591   0.974   2.696 -1.5453 -0.2385  0.2723
 1291SOL     OW 4011   1.314   0.982   3.171 -0.5449 -0.2153 -0.2945
 1291SOL    HW1 4012   1.249   0.953   3.235  1.0272  1.4648  2.3056
 1291SOL    HW2 4013   1.276   1.059   3.130 -0.5785  0.2441  0.5762
 1292SOL     OW 4014   2.460   2.900   2.250 -0.3589 -0.1162  0.2815
 1292SOL    HW1 4015   2.374   2.941   2.261  0.4110  1.1333  2.1848
 1292SOL    HW2 4016   2.519   2.972   2.228  0.2550 -0.9242 -0.8234
 1293SOL     OW 4017   3.033   3.185   2.381  0.1331 -0.7815  0.2010
 1293SOL    HW1 4018   2.939   3.201   2.377  0.3554  0.7901  0.4025
 1293SOL    HW2 4019   3.058   3.167   2.291 -0.1278  0.5030 -0.1566
 1294SOL     OW 4020   1.189   0.423   1.114  0.0004  0.7490 -0.2677
 1294SOL    HW1 4021   1.256   0.356   1.122 -0.8799 -0.1954 -0.6820
 1294SOL    HW2 4022   1.161   0.419   1.022 -0.8291  0.9144 -0.0347
 1295SOL     OW 4023   2.932   3.529   3.210  0.4740 -0.0017 -0.9546
 1295SOL    HW1 4024   2.988   3.602   3.182  3.1907 -1.4887  0.1381
 1295SOL    HW2 4025   2.922   3.542   3.304 -1.6331  0.5488 -1.2118
 1296SOL     OW 4026   2.264   2.675   1.166 -0.2807 -0.2235 -0.2963
 1296SOL    HW1 4027   2.316   2.754   1.153  0.4233 -0.2205  2.1416
 1296SOL    HW2 4028   2.325   2.603   1.147 -0.7428 -0.2424 -1.8852
 1297SOL     OW 4029   0.929   3.348   1.485  0.3233  0.4188 -0.0726
 1297SOL    HW1 4030   0.988   3.396   1.543  0.4060 -0.7537  0.8429
 1297SOL    HW2 4031   0.845   3.347   1.532 -0.2250  1.3757 -0.9955
 1298SOL     OW 4032   2.528   1.482   2.244 -0.3764  0.4569  0.3640
 1298SOL    HW1 4033   2.503   1.472   2.336 -1.2446  0.3030  0.1239
 1298SOL    HW2 4034   2.475   1.417   2.198 -1.7826  2.1482 -0.5389
 1299SOL     OW 4035   0.187   2.446   2.725 -0.3585 -0.0264  0.1354
 1299SOL    HW1 4036   0.234   2.525   2.700 -0.5783 -0.1116 -0.5568
 1299SOL    HW2 4037   0.243   2.405   2.792 -0.6432  1.1233  1.1121
 1300SOL     OW 4038   2.908   1.625   1.734  0.2065 -0.2928 -0.5715
 1300SOL    HW1 4039   2.909   1.532   1.715 -0.6969 -1.0568  2.5138
 1300SOL    HW2 4040   2.822   1.655   1.703 -0.7259 -1.2080  0.9677
 1301SOL     OW 4041   0.421   0.320   2.303 -0.0277  0.5715 -0.1334
 1301SOL    HW1 4042   0.374   0.244   2.338 -1.4970  1.7821  0.6325
 1301SOL    HW2 4043   0.465   0.286   2.225  1.9163 -1.7853  1.8235
 1302SOL     OW 4044   1.545   3.230   1.723  0.1799  0.3352 -0.0535
 1302SOL    HW1 4045   1.473   3.275   1.679 -1.3956 -2.0380 -0.0778
 1302SOL    HW2 4046   1.503   3.160   1.773  2.3822 -0.3690  0.9386
 1303SOL     OW 4047   1.524   3.637   2.629  0.2327 -0.6456  0.1031
 1303SOL    HW1 4048   1.492   3.628   2.719  0.4579  1.8389  0.5051
 1303SOL    HW2 4049   1.449   3.669   2.580  0.7789  0.6134  0.0342
 1304SOL     OW 4050   3.213  -0.014   2.517  0.3369  0.3298  0.1035
 1304SOL    HW1 4051   3.174   0.071   2.498 -0.5838  0.2232  1.3861
 1304SOL    HW2 4052   3.286   0.006   2.576  2.3444  0.5274 -2.2614
 1305SOL     OW 4053   2.479   1.360   3.363 -0.7662  1.0018 -0.8563
 1305SOL    HW1 4054   2.449   1.282   3.316 -1.5862  0.2837  0.7909
 1305SOL    HW2 4055   2.401   1.415   3.371 -0.6834  1.0373 -0.2137
 1306SOL     OW 4056   0.278   1.474   0.086  0.1834  0.2452 -0.2906
 1306SOL    HW1 4057   0.195   1.510   0.117 -0.2448 -0.3815 -0.6798
 1306SOL    HW2 4058   0.252   1.405   0.025  0.9505 -1.8119  1.5840
 1307SOL     OW 4059   2.693   2.756   1.600  0.1558 -0.7718  0.9114
 1307SOL    HW1 4060   2.658   2.797   1.521  0.2268  0.3085  1.4136
 1307SOL    HW2 4061   2.788   2.765   1.591  0.1709 -0.8203  1.0273
 1308SOL     OW 4062   0.649   2.494   0.993 -0.1397  0.6098 -0.3562
 1308SOL    HW1 4063   0.718   2.519   0.931 -0.5196  1.7552 -0.3408
 1308SOL    HW2 4064   0.568   2.525   0.952 -0.5903 -0.2110 -0.1026
 1309SOL     OW 4065   2.105   1.049   3.231 -0.2149  0.4770  0.0462
 1309SOL    HW1 4066   2.137   1.059   3.141  0.6433 -0.9952  0.1614
 1309SOL    HW2 4067   2.031   0.989   3.224 -0.6982  1.0365  0.2362
 1310SOL     OW 4068   2.266   1.839   2.908  0.5752 -0.2319 -0.1018
 1310SOL    HW1 4069   2.336   1.862   2.970 -1.2325  2.0515  1.2898
 1310SOL    HW2 4070   2.241   1.923   2.869  0.9927 -1.4797 -3.3455
 1311SOL     OW 4071   2.343   1.280   3.124  0.4574  0.0584  0.1812
 1311SOL    HW1 4072   2.341   1.240   3.037  2.5751  0.4424 -0.0928
 1311SOL    HW2 4073   2.289   1.359   3.115  2.7339  1.5475 -1.6218
 1312SOL     OW 4074   1.626   1.069   1.380  0.0774 -0.2859 -0.0643
 1312SOL    HW1 4075   1.707   1.092   1.334  1.0793 -1.3171  1.0921
 1312SOL    HW2 4076   1.557   1.112   1.331  1.1717 -0.6459 -2.0252
 1313SOL     OW 4077   2.774   2.422   2.614 -0.1991  0.1761  0.7243
 1313SOL    HW1 4078   2.848   2.461   2.567  0.0801 -0.4470  0.6292
 1313SOL    HW2 4079   2.708   2.406   2.546 -0.6765  1.2962  0.9064
 1314SOL     OW 4080   1.059   0.030   0.563 -0.0303 -0.4447  0.4238
 1314SOL    HW1 4081   1.042   0.108   0.615 -1.3339 -1.8456  2.2703
 1314SOL    HW2 4082   0.983  -0.026   0.579  1.2437 -2.4402 -0.1297
 1315SOL     OW 4083   3.509   3.614   2.263  0.6313 -0.4614  0.1116
 1315SOL    HW1 4084   3.451   3.541   2.284 -0.5450 -0.2111 -1.9845
 1315SOL    HW2 4085   3.553   3.587   2.182  0.2393  1.0920 -0.6559
 1316SOL     OW 4086   3.410   1.118   2.607  0.4552  0.4660 -0.7499
 1316SOL    HW1 4087   3.319   1.143   2.622  0.7295  1.1526 -0.1652
 1316SOL    HW2 4088   3.461   1.195   2.633  1.0846  1.2837 -3.9070
 1317SOL     OW 4089   2.866   0.897   0.520 -0.5451 -0.1725 -0.0954
 1317SOL    HW1 4090   2.906   0.926   0.439 -0.2036 -2.1753 -0.7149
 1317SOL    HW2 4091   2.940   0.874   0.576 -0.7588  1.7657  1.0675
 1318SOL     OW 4092   3.475   2.621   0.412 -0.5110  0.2644  0.0474
 1318SOL    HW1 4093   3.546   2.595   0.354  0.1275 -0.3772  1.0929
 1318SOL    HW2 4094   3.509   2.606   0.500 -0.5162  3.5768  0.7299
 1319SOL     OW 4095   0.832   3.689   1.676  0.8671  0.0564 -0.1096
 1319SOL    HW1 4096   0.746   3.731   1.675 -0.6921 -2.1739 -6.2263
 1319SOL    HW2 4097   0.890   3.751   1.632  0.9329 -0.5117 -0.8484
 1320SOL     OW 4098   0.591   0.090   3.500  0.4636  0.1375  0.8037
 1320SOL    HW1 4099   0.501   0.066   3.522  0.3855  0.5553  0.9610
 1320SOL    HW2 4100   0.584   0.130   3.414  0.6600 -0.8093  0.3350
 1321SOL     OW 4101   3.441   3.348   2.267  0.5346  0.3726 -0.2999
 1321SOL    HW1 4102   3.366   3.356   2.325 -0.7879 -2.0516 -1.5284
 1321SOL    HW2 4103   3.513   3.320   2.324 -0.2722 -0.2273  0.4473
 1322SOL     OW 4104   1.894   2.419   1.975 -0.2841 -0.7826  0.2499
 1322SOL    HW1 4105   1.990   2.409   1.975 -0.3202 -2.0435 -2.4145
 1322SOL    HW2 4106   1.879   2.507   2.011  1.9079 -0.3388  0.2214
 1323SOL     OW 4107   1.159   2.499   2.071 -0.0271 -0.0352  0.3682
 1323SOL    HW1 4108   1.237   2.446   2.054 -0.9795 -1.3476 -0.1010
 1323SOL    HW2 4109   1.148   2.494   2.166 -0.2150 -0.8560  0.3091
 1324SOL     OW 4110   1.625   2.818   2.687 -0.4349 -0.3058 -0.0876
 1324SOL    HW1 4111   1.705   2.867   2.707 -2.2016  2.5573  0.4211
 1324SOL    HW2 4112   1.606   2.769   2.767  0.0128  0.1982  0.3386
 1325SOL     OW 4113   3.021   2.625   0.840  0.2449  0.0440  0.3710
 1325SOL    HW1 4114   3.030   2.593   0.930 -1.9006 -0.9534  0.2871
 1325SOL    HW2 4115   2.932   2.657   0.835  0.2755 -0.0530 -1.4476
 1326SOL     OW 4116   1.981   0.423   2.823 -0.6110  0.2851  0.9972
 1326SOL    HW1 4117   2.039   0.485   2.867  2.2712 -0.6680 -1.1790
 1326SOL    HW2 4118   1.940   0.475   2.753  0.1265  0.2579  0.5353
 1327SOL     OW 4119   3.495   1.248   0.707 -0.0743 -0.1436 -0.6707
 1327SOL    HW1 4120   3.416   1.203   0.736 -1.1736  2.0367  0.0209
 1327SOL    HW2 4121   3.510   1.217   0.618 -1.3954 -1.0130 -0.6176
 1328SOL     OW 4122   1.578   2.777   3.220  0.0520 -0.0035  0.2105
 1328SOL    HW1 4123   1.648   2.837   3.247  1.2443 -0.4555 -1.6437
 1328SOL    HW2 4124   1.501   2.833   3.210  0.0919  0.4961  2.3633
 1329SOL     OW 4125   1.724   2.127   0.966  0.0019 -0.1994 -0.6428
 1329SOL    HW1 4126   1.764   2.128   1.052 -1.3348 -0.0689  0.0084
 1329SOL    HW2 4127   1.684   2.214   0.957 -0.1796 -0.3361 -1.2401
 1330SOL     OW 4128   1.070   1.820   1.746 -0.2437 -0.3526 -0.2721
 1330SOL    HW1 4129   1.144   1.804   1.688 -1.8400 -0.1839 -2.4654
 1330SOL    HW2 4130   1.051   1.913   1.736 -0.4140 -0.2615  0.7466
 1331SOL     OW 4131   1.258   2.142   0.240  0.3384  0.3118 -0.0181
 1331SOL    HW1 4132   1.268   2.088   0.162  2.5150  0.7767 -0.1165
 1331SOL    HW2 4133   1.238   2.229   0.206 -1.6362 -0.0456  0.0947
 1332SOL     OW 4134   1.986   2.687   1.086 -0.0962 -1.0426  0.1554
 1332SOL    HW1 4135   2.003   2.656   0.997  0.4690  0.4345 -0.2964
 1332SOL    HW2 4136   2.049   2.641   1.140  0.9027 -0.5199 -0.5243
 1333SOL     OW 4137   0.570   3.126   2.690 -0.1504 -0.0087 -0.0861
 1333SOL    HW1 4138   0.617   3.119   2.772  1.8629  2.0503 -0.9676
 1333SOL    HW2 4139   0.619   3.071   2.629 -1.7429 -1.6861  0.0429
 1334SOL     OW 4140   2.040   0.589   1.476  0.1193  0.1642  0.7639
 1334SOL    HW1 4141   2.097   0.656   1.514  0.8110 -0.5424  0.9754
 1334SOL    HW2 4142   2.000   0.633   1.400  1.8272  0.3270 -0.0884
 1335SOL     OW 4143   3.619   0.029   1.193  0.7638  0.6110 -0.4596
 1335SOL    HW1 4144   3.600  -0.025   1.269 -1.1896  3.4062  1.2486
 1335SOL    HW2 4145   3.682   0.094   1.225 -2.0005  3.4368 -0.2314
 1336SOL     OW 4146   2.106   1.992   0.070 -0.0232  0.2157  0.8331
 1336SOL    HW1 4147   2.181   1.986   0.010  0.1667  2.2599  0.8114
 1336SOL    HW2 4148   2.130   1.934   0.143  0.7085 -0.6214 -0.0361
 1337SOL     OW 4149   1.515   1.826   3.046  0.7346 -0.6086  0.1483
 1337SOL    HW1 4150   1.505   1.747   3.099  0.3740  0.3064  1.5007
 1337SOL    HW2 4151   1.500   1.797   2.956 -2.2161 -1.5825  0.8558
 1338SOL     OW 4152   0.111   3.632   1.090 -0.5111 -0.3519  0.2275
 1338SOL    HW1 4153   0.149   3.601   1.173  1.5201  3.0552  0.7323
 1338SOL    HW2 4154   0.023   3.660   1.114  0.2557  1.1565  1.4392
 1339SOL     OW 4155   1.851   0.490   1.676 -0.1028 -0.1816 -0.6011
 1339SOL    HW1 4156   1.833   0.569   1.726  2.1773  0.5801 -0.8712
 1339SOL    HW2 4157   1.869   0.521   1.587  0.6773 -0.9902 -0.7441
 1340SOL     OW 4158   0.437   3.476   2.329  0.0823 -0.2043  1.1637
 1340SOL    HW1 4159   0.423   3.387   2.361  0.6422 -0.7073  0.0630
 1340SOL    HW2 4160   0.435   3.468   2.234  3.0919  0.4253  0.9430
 1341SOL     OW 4161   2.557   0.453   0.614  0.1019 -0.3493 -0.4508
 1341SOL    HW1 4162   2.628   0.504   0.653  0.2853  0.1750 -1.4390
 1341SOL    HW2 4163   2.478   0.483   0.659  0.5696 -1.4543  1.1640
 1342SOL     OW 4164   2.849   3.446   1.971 -0.0620  0.0318 -0.0988
 1342SOL    HW1 4165   2.927   3.477   2.017  0.5359  0.2286 -1.2029
 1342SOL    HW2 4166   2.848   3.352   1.986  0.7964 -0.0770 -0.6455
 1343SOL     OW 4167   0.662   2.663   1.615  0.1521  0.0665  0.4264
 1343SOL    HW1 4168   0.715   2.690   1.540 -0.6447  0.0230 -0.1595
 1343SOL    HW2 4169   0.725   2.622   1.674  0.9596  0.9503  0.2190
 1344SOL     OW 4170   1.327   1.669   2.325  0.1218 -0.1024 -0.2111
 1344SOL    HW1 4171   1.256   1.671   2.261  1.0922  0.7944 -1.3023
 1344SOL    HW2 4172   1.340   1.761   2.350 -0.3166 -0.4445  1.3871
 1345SOL     OW 4173   3.257   2.376   1.304  0.6697  0.5857  0.4473
 1345SOL    HW1 4174   3.316   2.450   1.322  0.8292  0.1886  1.6868
 1345SOL    HW2 4175   3.309   2.316   1.252  0.6836  1.1522 -0.2025
 1346SOL     OW 4176   0.544   3.487   0.199  0.6013  0.0391 -0.6444
 1346SOL    HW1 4177   0.463   3.445   0.230 -0.1438  2.5334  1.0740
 1346SOL    HW2 4178   0.521   3.524   0.114  1.0939 -2.3124 -1.8989
 1347SOL     OW 4179   0.566   0.790   0.152 -0.0129  0.1313  0.2134
 1347SOL    HW1 4180   0.641   0.813   0.207  0.5339 -1.3461  0.1263
 1347SOL    HW2 4181   0.515   0.871   0.146  0.1724  0.4775  2.4420
 1348SOL     OW 4182   1.441   2.094   3.136  0.0216 -1.3107 -0.2522
 1348SOL    HW1 4183   1.509   2.154   3.167 -1.1261 -0.7492  1.3197
 1348SOL    HW2 4184   1.490   2.021   3.098  1.6282 -1.9420  2.7143
 1349SOL     OW 4185   3.646   3.302   2.409  0.4744  0.3163 -0.1531
 1349SOL    HW1 4186   3.709   3.310   2.481 -0.0361  3.2460  0.0789
 1349SOL    HW2 4187   3.683   3.355   2.339 -1.8627  2.4644  0.1326
 1350SOL     OW 4188   1.380   2.499   0.436 -0.2214 -0.5663 -0.0120
 1350SOL    HW1 4189   1.324   2.430   0.472 -0.8792  1.6248  3.6285
 1350SOL    HW2 4190   1.331   2.580   0.449  1.4120  0.8976 -2.1552
 1351SOL     OW 4191   1.638   1.237   0.676  0.4795 -0.1983  0.5062
 1351SOL    HW1 4192   1.619   1.163   0.734 -0.9447 -0.2604  0.0070
 1351SOL    HW2 4193   1.602   1.210   0.591 -2.2518  1.9883  0.8492
 1352SOL     OW 4194   0.490   2.784   1.788  0.0186 -0.0776  0.3388
 1352SOL    HW1 4195   0.546   2.807   1.862  0.4359 -2.0401  0.6876
 1352SOL    HW2 4196   0.551   2.751   1.721 -0.5210 -0.1587 -0.1235
 1353SOL     OW 4197   3.351   0.853   0.738 -0.2749 -0.0905  0.2930
 1353SOL    HW1 4198   3.420   0.833   0.674 -1.1457 -1.0089 -0.4070
 1353SOL    HW2 4199   3.270   0.848   0.687 -0.9007  0.3492  1.2255
 1354SOL     OW 4200   0.140   0.085   2.313  0.2060 -0.4965 -0.0603
 1354SOL    HW1 4201   0.067   0.030   2.284  0.6629 -1.9211  1.3486
 1354SOL    HW2 4202   0.218   0.031   2.300  0.8033  0.2719  0.2601
 1355SOL     OW 4203   3.315   3.177   2.901 -0.0979 -0.2326 -0.0467
 1355SOL    HW1 4204   3.265   3.102   2.934 -0.6777 -1.2777 -3.0230
 1355SOL    HW2 4205   3.393   3.137   2.862 -1.0261  0.4737 -2.8406
 1356SOL     OW 4206   2.385   1.310   0.734 -0.1216  0.6185 -0.0280
 1356SOL    HW1 4207   2.462   1.350   0.774  1.1277 -1.1261 -0.5575
 1356SOL    HW2 4208   2.400   1.318   0.640  0.5149 -1.5718 -0.1719
 1357SOL     OW 4209   3.177   1.547   2.956  0.1180  0.0407 -0.2666
 1357SOL    HW1 4210   3.256   1.561   3.009 -1.1655  0.8802  1.5346
 1357SOL    HW2 4211   3.135   1.633   2.952 -1.5472 -0.7133  0.2668
 1358SOL     OW 4212   3.332   2.903   2.782 -0.3279  0.2972  0.1157
 1358SOL    HW1 4213   3.427   2.905   2.791 -0.3677 -0.1502  0.7124
 1358SOL    HW2 4214   3.312   2.968   2.714  0.4469 -0.0465 -0.4478
 1359SOL     OW 4215   1.209   1.567   0.376  0.3312 -0.1484  0.2100
 1359SOL    HW1 4216   1.219   1.578   0.470  0.6124 -0.8600  0.2724
 1359SOL    HW2 4217   1.185   1.654   0.344  0.8925  0.2504  0.8479
 1360SOL     OW 4218   3.177   1.757   3.418  0.1556 -0.1891  0.0388
 1360SOL    HW1 4219   3.255   1.704   3.408  0.4202  0.2640 -0.3211
 1360SOL    HW2 4220   3.160   1.758   3.512  0.3696 -0.5881  0.0808
 1361SOL     OW 4221   1.710   0.786   0.229  0.2121 -0.5226 -0.6131
 1361SOL    HW1 4222   1.743   0.702   0.260 -0.5346 -1.1039 -1.3417
 1361SOL    HW2 4223   1.769   0.811   0.158 -0.5952 -1.3477 -1.6201
 1362SOL     OW 4224   3.149   1.696   0.707 -0.0385 -0.0523 -0.7862
 1362SOL    HW1 4225   3.072   1.657   0.748  0.1189  0.3161 -0.1312
 1362SOL    HW2 4226   3.212   1.625   0.702 -0.0241 -0.0743 -0.2977
 1363SOL     OW 4227   2.906   1.522   0.828 -0.0561  0.1785 -0.9439
 1363SOL    HW1 4228   2.864   1.437   0.843  1.2878 -0.5755 -1.2874
 1363SOL    HW2 4229   2.844   1.586   0.864 -0.5586 -1.0100  0.3908
 1364SOL     OW 4230   3.334   0.949   3.216  0.2181 -0.4809  0.4120
 1364SOL    HW1 4231   3.308   1.034   3.252  1.2647  0.1434 -0.2660
 1364SOL    HW2 4232   3.361   0.898   3.292 -0.7985 -0.3595  0.8690
 1365SOL     OW 4233   1.394   2.450   3.048  0.2205 -0.4836 -0.2670
 1365SOL    HW1 4234   1.356   2.490   3.126 -2.1585 -0.0684 -1.5718
 1365SOL    HW2 4235   1.461   2.391   3.082 -1.6530 -1.3434  2.2069
 1366SOL     OW 4236   2.224   2.655   3.033 -0.4390 -0.3983 -0.8658
 1366SOL    HW1 4237   2.152   2.705   3.072  0.9281  0.3336  0.8420
 1366SOL    HW2 4238   2.233   2.692   2.945 -1.9267 -0.2882 -0.9943
 1367SOL     OW 4239   3.714   2.930   2.666  0.0892 -0.1031 -0.2666
 1367SOL    HW1 4240   3.746   2.840   2.660 -0.2999 -0.4518  1.8569
 1367SOL    HW2 4241   3.634   2.931   2.615  1.1655 -0.3659 -2.0541
 1368SOL     OW 4242   3.563   2.938   1.673  0.3231 -0.2003  0.0387
 1368SOL    HW1 4243   3.647   2.974   1.700  2.1916 -2.6345 -2.0782
 1368SOL    HW2 4244   3.501   2.968   1.740  2.7353  2.0310  1.4403
 1369SOL     OW 4245   1.573   3.135   2.108 -0.0683 -0.4119  1.2450
 1369SOL    HW1 4246   1.646   3.192   2.083 -0.0237 -1.4465 -1.2549
 1369SOL    HW2 4247   1.568   3.144   2.203 -0.5464  4.2943  1.0471
 1370SOL     OW 4248   3.223   3.333   1.669  0.3207 -0.2895 -0.2832
 1370SOL    HW1 4249   3.218   3.411   1.614 -2.1351  1.0556  1.6406
 1370SOL    HW2 4250   3.280   3.360   1.742 -0.2552 -0.4058  0.2131
 1371SOL     OW 4251   1.738   2.700   3.536  0.2881 -0.1732  0.0946
 1371SOL    HW1 4252   1.728   2.696   3.631  0.6308  0.2904  0.1547
 1371SOL    HW2 4253   1.824   2.662   3.519 -0.7583 -2.5679 -0.2676
 1372SOL     OW 4254   0.362   1.609   2.328 -0.4496  0.0138  0.7137
 1372SOL    HW1 4255   0.371   1.678   2.393 -0.9519 -0.2684  1.0978
 1372SOL    HW2 4256   0.272   1.577   2.340  0.4204 -2.1967  2.0696
 1373SOL     OW 4257   1.972   2.719   2.867 -0.1173  0.1816  0.7111
 1373SOL    HW1 4258   1.978   2.813   2.888  0.1445  0.0657  1.1605
 1373SOL    HW2 4259   2.021   2.710   2.786  0.3672  0.3356  0.9812
 1374SOL     OW 4260   0.609   0.438   3.364 -0.3115  0.0169 -0.4287
 1374SOL    HW1 4261   0.604   0.512   3.424  0.7376 -0.0362 -0.2613
 1374SOL    HW2 4262   0.527   0.442   3.314  0.2476  2.0223 -1.2629
 1375SOL     OW 4263   1.343   2.977   3.508 -0.5074  0.0050  0.1368
 1375SOL    HW1 4264   1.419   2.921   3.493  0.5651  2.0533 -2.9853
 1375SOL    HW2 4265   1.349   3.002   3.600  3.1803  0.7784 -0.1794
 1376SOL     OW 4266   0.924   3.362   3.436  0.0339  0.3076 -0.4588
 1376SOL    HW1 4267   0.870   3.440   3.426  0.5637  0.5211 -1.8176
 1376SOL    HW2 4268   0.938   3.355   3.531  1.6284  3.0363 -0.3779
 1377SOL     OW 4269   1.304   0.158   3.663  0.4845  0.1915  0.5216
 1377SOL    HW1 4270   1.337   0.074   3.697  1.1634  0.4386  0.4824
 1377SOL    HW2 4271   1.300   0.145   3.569  1.9032  0.6416  0.3752
 1378SOL     OW 4272   2.772   2.752   3.592 -0.0818  1.2364  0.0918
 1378SOL    HW1 4273   2.806   2.666   3.616 -0.5821  0.9349 -0.2598
 1378SOL    HW2 4274   2.818   2.774   3.511  0.0958  1.3349  0.2176
 1379SOL     OW 4275   3.296   3.401   1.098  0.2374 -0.2996  0.1269
 1379SOL    HW1 4276   3.338   3.486   1.085  0.3207 -0.1605  1.1732
 1379SOL    HW2 4277   3.213   3.423   1.141  0.5585 -0.7777  1.0212
 1380SOL     OW 4278   1.990   3.211   0.369 -0.4924  0.1753 -0.7606
 1380SOL    HW1 4279   2.009   3.231   0.460  0.1512  0.7415 -1.0048
 1380SOL    HW2 4280   2.033   3.281   0.320 -1.9581  0.6380 -1.4452
 1381SOL     OW 4281   0.658   0.379   2.420  0.0920 -0.0394 -0.2479
 1381SOL    HW1 4282   0.569   0.382   2.385 -0.1290  4.7823  0.0091
 1381SOL    HW2 4283   0.709   0.433   2.360  1.7379  1.1208  2.0455
 1382SOL     OW 4284   1.650   1.307   3.554 -0.1901 -0.7464  0.6383
 1382SOL    HW1 4285   1.590   1.287   3.482  0.9522 -0.2151 -0.4927
 1382SOL    HW2 4286   1.593   1.320   3.630 -1.5024 -0.2728 -0.3948
 1383SOL     OW 4287   0.897   1.274   3.506  0.3062 -0.2629 -0.7321
 1383SOL    HW1 4288   0.973   1.246   3.454  0.0039 -0.3558 -1.1324
 1383SOL    HW2 4289   0.930   1.281   3.595  0.9098  0.2018 -0.9863
 1384SOL     OW 4290   1.829   0.433   0.090  0.0818 -0.3595  0.3608
 1384SOL    HW1 4291   1.756   0.495   0.082 -0.5271 -0.8246  2.0318
 1384SOL    HW2 4292   1.818   0.376   0.014  0.5423  1.3927 -1.1136
 1385SOL     OW 4293   0.407   2.920   2.787  0.3151 -0.4031 -0.6600
 1385SOL    HW1 4294   0.460   2.984   2.739 -0.9887 -0.3827 -2.1767
 1385SOL    HW2 4295   0.416   2.839   2.737 -0.0583 -0.7336 -0.2044
 1386SOL     OW 4296   3.428   2.067   3.263 -0.1764 -0.1743 -0.0096
 1386SOL    HW1 4297   3.361   1.999   3.257 -0.8090  0.3881  0.5306
 1386SOL    HW2 4298   3.478   2.046   3.342 -0.7645  0.3342  0.4998
 1387SOL     OW 4299   2.686   1.096   0.319 -0.3578  0.5631 -0.0521
 1387SOL    HW1 4300   2.750   1.113   0.250 -0.2156 -1.1338 -0.3868
 1387SOL    HW2 4301   2.602   1.123   0.281 -0.4476 -1.3490 -1.3887
 1388SOL     OW 4302   2.733   0.235   2.611 -0.2804  0.2998  0.4894
 1388SOL    HW1 4303   2.685   0.175   2.668 -0.6078  1.0484  1.0224
 1388SOL    HW2 4304   2.754   0.310   2.667  3.2967 -0.8062  0.8926
 1389SOL     OW 4305   1.259   1.044   0.060  0.0226  0.3221  0.0021
 1389SOL    HW1 4306   1.167   1.047   0.033  0.1453 -0.1387 -0.4741
 1389SOL    HW2 4307   1.261   1.090   0.145 -0.7630 -0.2942  0.3597
 1390SOL     OW 4308   0.778   2.650   0.161 -0.3937 -0.4297 -0.4017
 1390SOL    HW1 4309   0.793   2.729   0.212  0.4035 -0.7680 -0.1068
 1390SOL    HW2 4310   0.740   2.588   0.223 -1.0245 -0.2929 -0.6348
 1391SOL     OW 4311   1.706   3.003   0.340  0.0993  0.0076 -0.1417
 1391SOL    HW1 4312   1.634   3.033   0.395 -1.3032 -1.5860 -1.0288
 1391SOL    HW2 4313   1.784   3.017   0.393 -0.9695  0.7701  1.2778
 1392SOL     OW 4314   2.775   3.246   2.420  0.0651  0.1796  0.0747
 1392SOL    HW1 4315   2.795   3.324   2.368 -2.7691  0.2429 -1.0955
 1392SOL    HW2 4316   2.752   3.280   2.507  1.4519  0.3749  0.3828
 1393SOL     OW 4317   1.705   2.949   2.328  0.0371 -0.6263 -0.6431
 1393SOL    HW1 4318   1.743   2.867   2.297  3.7863  0.6796 -0.0176
 1393SOL    HW2 4319   1.747   3.017   2.274 -1.1686  1.0270  0.4018
 1394SOL     OW 4320   1.636   0.306   2.089  0.0306  0.2695  0.4119
 1394SOL    HW1 4321   1.575   0.239   2.120 -0.7609  1.2096  0.9453
 1394SOL    HW2 4322   1.722   0.274   2.116 -0.2182 -0.9951 -0.2068
 1395SOL     OW 4323   0.935   1.627   1.871 -0.6395 -0.2990  0.0018
 1395SOL    HW1 4324   0.986   1.685   1.814  0.4713  0.6585  1.8626
 1395SOL    HW2 4325   0.995   1.556   1.893 -0.4279  0.2553  1.3237
 1396SOL     OW 4326   3.316   1.423   1.529  0.3335  0.0784 -0.0628
 1396SOL    HW1 4327   3.356   1.477   1.461 -0.9615  1.0351 -0.0947
 1396SOL    HW2 4328   3.317   1.334   1.494  3.6261 -0.2545  0.4722
 1397SOL     OW 4329   3.393   0.528   1.399  0.1562 -0.1434 -0.1295
 1397SOL    HW1 4330   3.300   0.537   1.416  0.2788 -0.5891  0.8676
 1397SOL    HW2 4331   3.404   0.439   1.366 -0.1261  0.8340 -3.0852
 1398SOL     OW 4332   2.766   1.868   3.279  0.0276 -0.0535  0.4479
 1398SOL    HW1 4333   2.857   1.896   3.276  0.2427 -0.3769  2.6426
 1398SOL    HW2 4334   2.770   1.772   3.276 -0.2175 -0.0818  1.0344
 1399SOL     OW 4335   2.380   1.279   3.630 -0.2088 -1.0094 -0.2150
 1399SOL    HW1 4336   2.377   1.374   3.632 -0.3711 -1.0048  2.3687
 1399SOL    HW2 4337   2.427   1.258   3.549  2.5407  1.3773  0.5879
 1400SOL     OW 4338   3.109   0.481   0.777  0.2839 -0.2286 -0.1685
 1400SOL    HW1 4339   3.087   0.495   0.870  1.5560 -1.1972  0.3119
 1400SOL    HW2 4340   3.157   0.398   0.776 -1.0168 -1.0157 -1.9275
 1401SOL     OW 4341   1.697   2.409   1.019  0.3080  0.5368 -0.0289
 1401SOL    HW1 4342   1.784   2.390   1.054  0.6237  2.4512  0.3339
 1401SOL    HW2 4343   1.684   2.503   1.036 -1.0688  0.6990 -1.7079
 1402SOL     OW 4344   1.577   1.728   2.162  0.4862 -0.1078  0.5835
 1402SOL    HW1 4345   1.626   1.682   2.230  0.2052 -1.8535 -0.3328
 1402SOL    HW2 4346   1.500   1.673   2.147  1.8293 -1.2982 -2.9921
 1403SOL     OW 4347   1.881   1.856   0.864 -0.0451  0.2820 -0.0364
 1403SOL    HW1 4348   1.889   1.761   0.858 -0.4635  0.0411  2.1669
 1403SOL    HW2 4349   1.929   1.879   0.943 -2.8353  1.4108  1.4709
 1404SOL     OW 4350   0.366   2.852   2.388  0.3110 -0.3994  0.3997
 1404SOL    HW1 4351   0.356   2.886   2.299  0.8965 -0.6769  0.2269
 1404SOL    HW2 4352   0.312   2.910   2.441 -1.6786 -1.4100 -0.4045
 1405SOL     OW 4353   0.945   3.097   0.874 -0.3778 -0.1727  0.7848
 1405SOL    HW1 4354   0.895   3.017   0.888  0.2916 -0.4165  1.9137
 1405SOL    HW2 4355   0.900   3.141   0.802 -1.3854 -1.0459  0.8534
 1406SOL     OW 4356   0.041   2.585   1.407 -0.2869 -0.1670 -0.0293
 1406SOL    HW1 4357  -0.028   2.552   1.465  1.3825 -3.4409  0.3361
 1406SOL    HW2 4358   0.013   2.558   1.319 -0.4763  0.4015 -0.1451
 1407SOL     OW 4359   3.522   0.107   1.854 -0.1746 -0.5606  0.3995
 1407SOL    HW1 4360   3.480   0.034   1.809 -2.4187 -0.4190  2.1236
 1407SOL    HW2 4361   3.513   0.181   1.793 -1.0910 -0.8939  0.1209
 1408SOL     OW 4362   2.779   0.302   3.612 -0.0913 -0.4062 -0.0097
 1408SOL    HW1 4363   2.825   0.363   3.555 -4.1054  1.6131 -1.4618
 1408SOL    HW2 4364   2.773   0.346   3.696  0.4156 -0.5732  0.1142
 1409SOL     OW 4365   1.030   1.978   2.290  0.1005  0.1369 -0.5895
 1409SOL    HW1 4366   1.016   1.924   2.367  1.6138 -0.3661 -0.6356
 1409SOL    HW2 4367   1.032   2.068   2.323 -2.5097  0.2200 -0.5249
 1410SOL     OW 4368   1.109   3.635   2.217 -0.2620  0.0211  0.9876
 1410SOL    HW1 4369   1.205   3.627   2.216 -0.0469  2.0181 -0.0145
 1410SOL    HW2 4370   1.078   3.547   2.238  1.7935 -0.5620  1.9104
 1411SOL     OW 4371   3.233   2.417   1.673 -0.3366  0.2309  0.1702
 1411SOL    HW1 4372   3.265   2.495   1.717 -0.7565  0.5269 -0.0335
 1411SOL    HW2 4373   3.192   2.451   1.593 -0.1341 -0.2378 -0.1321
 1412SOL     OW 4374   1.321   2.004   3.422 -0.3194  0.6795 -0.4279
 1412SOL    HW1 4375   1.262   1.931   3.401 -0.1610  0.8540 -1.5135
 1412SOL    HW2 4376   1.380   2.010   3.347  2.6259 -0.9720  1.5494
 1413SOL     OW 4377   1.019   0.660   0.772  0.1966  0.5549 -0.9475
 1413SOL    HW1 4378   1.114   0.672   0.769  0.5303 -1.6783 -1.1824
 1413SOL    HW2 4379   1.001   0.639   0.864 -0.1456  1.4339 -0.8110
 1414SOL     OW 4380   0.822   2.813   0.372  0.4210  0.2882 -0.1072
 1414SOL    HW1 4381   0.750   2.875   0.362 -0.4348  0.1632  3.5954
 1414SOL    HW2 4382   0.900   2.869   0.382 -0.1231  0.8138  1.6822
 1415SOL     OW 4383   0.406   3.104   0.813 -0.7024  1.1421 -0.2421
 1415SOL    HW1 4384   0.429   3.140   0.728 -0.4825  1.6829  0.0376
 1415SOL    HW2 4385   0.319   3.065   0.801  0.4833 -1.4187 -1.4773
 1416SOL     OW 4386   2.351   1.311   0.415  0.0722 -0.0062  0.1732
 1416SOL    HW1 4387   2.372   1.384   0.356 -1.4819 -0.2735 -0.7703
 1416SOL    HW2 4388   2.340   1.236   0.357  0.7333 -0.7966  1.0475
 1417SOL     OW 4389   3.460   0.539   3.409  0.3929  0.3026  0.0682
 1417SOL    HW1 4390   3.464   0.485   3.487  0.3546  0.4794  0.1948
 1417SOL    HW2 4391   3.396   0.496   3.352 -0.6967  0.9607  0.7548
 1418SOL     OW 4392   3.583   1.914   0.012  0.1217 -0.1057 -0.8313
 1418SOL    HW1 4393   3.527   1.886   0.084 -0.4979 -0.0495 -1.2853
 1418SOL    HW2 4394   3.591   2.009   0.022  0.9847 -0.2344 -0.1738
 1419SOL     OW 4395   2.051   3.005   0.178  0.0298 -1.0026 -0.3522
 1419SOL    HW1 4396   2.002   3.063   0.237 -0.5617 -2.4089  0.6207
 1419SOL    HW2 4397   2.128   2.980   0.229  0.7608 -0.3473 -1.1248
 1420SOL     OW 4398   2.599   0.328   2.357  0.0434  0.7748 -0.5860
 1420SOL    HW1 4399   2.618   0.338   2.450 -1.7876  2.6694 -0.3462
 1420SOL    HW2 4400   2.575   0.236   2.348  0.9439  0.3868  0.6445
 1421SOL     OW 4401   1.330   1.502   2.916  0.1178  0.1979 -0.1334
 1421SOL    HW1 4402   1.306   1.468   2.830 -2.9628  1.7774 -0.0265
 1421SOL    HW2 4403   1.380   1.581   2.898 -1.1290  0.9180 -0.5288
 1422SOL     OW 4404   1.121   2.188   3.143  0.6146 -0.1651  0.0646
 1422SOL    HW1 4405   1.204   2.193   3.191  0.4968  0.7649  0.1905
 1422SOL    HW2 4406   1.054   2.206   3.209  0.3193 -0.7512 -0.0706
 1423SOL     OW 4407   2.351   0.249   3.276  0.3196 -0.6898  0.0784
 1423SOL    HW1 4408   2.390   0.168   3.308  0.1463 -0.9712 -0.4137
 1423SOL    HW2 4409   2.408   0.318   3.310  1.2455 -1.0850 -0.6079
 1424SOL     OW 4410   3.006   0.774   2.219 -0.5377  0.0217  0.2740
 1424SOL    HW1 4411   3.089   0.768   2.171 -0.6300 -0.0806  0.1240
 1424SOL    HW2 4412   2.939   0.761   2.152 -0.6616 -0.3699  0.4729
 1425SOL     OW 4413   2.198   0.648   2.037  0.2257  0.5432  0.5404
 1425SOL    HW1 4414   2.273   0.588   2.039  0.3342  0.6848  0.7060
 1425SOL    HW2 4415   2.144   0.616   1.965  2.1914  2.5104 -2.0389
 1426SOL     OW 4416   0.184   0.378   0.486  0.1327 -0.2539  0.3661
 1426SOL    HW1 4417   0.097   0.417   0.478  0.6584  1.4035  2.1191
 1426SOL    HW2 4418   0.186   0.311   0.417 -2.3043  0.0306 -0.0811
 1427SOL     OW 4419   2.138   1.206   1.928  0.4163  0.5782 -0.2160
 1427SOL    HW1 4420   2.096   1.242   2.006  0.0408 -0.9401  0.3029
 1427SOL    HW2 4421   2.098   1.120   1.915 -0.3843  1.2526 -2.7941
 1428SOL     OW 4422   2.725   1.827   0.839  0.0544 -0.2224 -0.2655
 1428SOL    HW1 4423   2.699   1.756   0.781  0.1690  0.7159 -1.5126
 1428SOL    HW2 4424   2.648   1.884   0.843 -0.4304 -0.9484  1.6199
 1429SOL     OW 4425   0.140   0.171   1.283 -0.2716 -0.2999 -0.1504
 1429SOL    HW1 4426   0.144   0.238   1.352  0.4710 -1.8988  1.4646
 1429SOL    HW2 4427   0.161   0.089   1.329  1.5960 -1.2827 -2.5319
 1430SOL     OW 4428   0.058   3.052   1.763 -0.5585  0.0965  0.6106
 1430SOL    HW1 4429   0.109   3.082   1.839  1.0664  0.4417 -0.5435
 1430SOL    HW2 4430   0.096   3.100   1.689 -1.3616 -1.0308 -0.5756
 1431SOL     OW 4431   2.607   1.121   2.038  0.0657 -0.2550  0.3546
 1431SOL    HW1 4432   2.594   1.127   2.132  0.0963  1.3839  0.2740
 1431SOL    HW2 4433   2.697   1.149   2.024 -0.7957  2.3815 -0.3906
 1432SOL     OW 4434   1.924   3.434   3.073 -0.4078  0.4162  0.2862
 1432SOL    HW1 4435   1.864   3.367   3.040  0.2050  0.0933 -0.2055
 1432SOL    HW2 4436   1.882   3.517   3.051 -0.0994  0.2099 -1.2150
 1433SOL     OW 4437   0.300   2.582   1.540 -0.1627  0.2381 -0.4684
 1433SOL    HW1 4438   0.225   2.531   1.511 -0.0139  0.0838 -0.5834
 1433SOL    HW2 4439   0.375   2.543   1.495  0.1267 -0.2677  0.4369
 1434SOL     OW 4440   2.161   2.143   3.509  0.1625  0.3055  0.0451
 1434SOL    HW1 4441   2.069   2.133   3.484 -0.0306  0.7647  0.5498
 1434SOL    HW2 4442   2.209   2.089   3.446 -0.5124 -0.5963  0.2835
 1435SOL     OW 4443   1.798   1.497   1.514 -0.0146 -0.2413 -0.2973
 1435SOL    HW1 4444   1.755   1.412   1.522  2.1981 -1.4094 -0.1347
 1435SOL    HW2 4445   1.889   1.481   1.539  0.7055  1.9714 -1.2104
 1436SOL     OW 4446   2.873   3.439   0.287  0.0024  0.1013 -0.6600
 1436SOL    HW1 4447   2.908   3.526   0.273 -0.1608  0.3085  0.1479
 1436SOL    HW2 4448   2.800   3.432   0.226 -1.8267  1.6438  1.1883
 1437SOL     OW 4449   2.969   0.050   3.701 -0.0834  0.3481  0.0205
 1437SOL    HW1 4450   3.051   0.058   3.652  0.7622 -0.3115  1.2863
 1437SOL    HW2 4451   2.943   0.140   3.718  1.9014  0.6434  2.0150
 1438SOL     OW 4452   2.156   0.182   2.491 -0.1977  0.3122 -0.3970
 1438SOL    HW1 4453   2.231   0.175   2.550 -0.1158  0.7770 -0.4484
 1438SOL    HW2 4454   2.085   0.215   2.546 -0.7927 -1.4914  0.0191
 1439SOL     OW 4455   2.409   2.107   0.312 -0.0184  0.8301  0.1658
 1439SOL    HW1 4456   2.407   2.102   0.216  2.7469  1.8277 -0.0542
 1439SOL    HW2 4457   2.405   2.016   0.340 -0.8304  0.5179 -0.9047
 1440SOL     OW 4458   2.953   2.222   1.765 -0.1863 -0.5358 -0.0967
 1440SOL    HW1 4459   3.006   2.183   1.696 -0.2722 -2.3244  0.7729
 1440SOL    HW2 4460   2.941   2.151   1.828 -1.0353  0.7188  1.2148
 1441SOL     OW 4461   1.574   0.520   3.317 -0.2993  0.2326  0.0037
 1441SOL    HW1 4462   1.559   0.580   3.390 -0.0727  0.1455  0.1248
 1441SOL    HW2 4463   1.487   0.487   3.293 -0.4067  0.5032  0.0280
 1442SOL     OW 4464   2.040   0.311   0.411 -0.5145  0.1927  0.0186
 1442SOL    HW1 4465   2.122   0.321   0.364 -0.7868  1.1581 -0.2844
 1442SOL    HW2 4466   2.062   0.333   0.502 -0.2494 -0.4437  0.1090
 1443SOL     OW 4467   1.072   2.763   2.807  0.2821  0.5603 -0.2053
 1443SOL    HW1 4468   0.999   2.788   2.751  0.7670 -1.9653 -2.1288
 1443SOL    HW2 4469   1.032   2.727   2.886 -0.6159 -0.9350 -1.2978
 1444SOL     OW 4470   0.928   2.170   3.334  0.5101 -0.0978 -0.0193
 1444SOL    HW1 4471   0.925   2.077   3.354 -2.7055 -0.3553 -1.0799
 1444SOL    HW2 4472   0.893   2.212   3.414 -2.7762 -0.3379 -1.1567
 1445SOL     OW 4473   1.857   1.040   1.093 -0.0688 -0.2950 -0.2877
 1445SOL    HW1 4474   1.872   1.088   1.175 -2.0007 -1.1054  0.6083
 1445SOL    HW2 4475   1.838   1.108   1.029 -2.6943  0.2422  0.9378
 1446SOL     OW 4476   0.222   1.891   1.785 -0.1981 -0.1803  0.4224
 1446SOL    HW1 4477   0.272   1.973   1.784 -0.5871  0.0707 -0.9922
 1446SOL    HW2 4478   0.284   1.825   1.753 -0.2591 -0.1868  0.3154
 1447SOL     OW 4479   3.385   2.335   0.354  0.4844 -0.3364 -0.1666
 1447SOL    HW1 4480   3.296   2.338   0.389 -0.1942 -1.5413 -1.7008
 1447SOL    HW2 4481   3.416   2.426   0.360 -0.3694 -0.1194  1.5030
 1448SOL     OW 4482   0.703   3.189   2.347  0.3978 -0.3882  0.2718
 1448SOL    HW1 4483   0.793   3.185   2.315  0.1423  2.2099 -1.0601
 1448SOL    HW2 4484   0.652   3.219   2.272 -1.0416  1.2366  1.7890
 1449SOL     OW 4485   2.408   0.355   1.610 -0.2254 -0.6621 -0.2436
 1449SOL    HW1 4486   2.407   0.293   1.538 -0.3565 -0.6148 -0.2815
 1449SOL    HW2 4487   2.324   0.401   1.605  0.5307  0.6982 -1.2403
 1450SOL     OW 4488   2.379   2.146   2.254 -0.2299  0.5164  0.1405
 1450SOL    HW1 4489   2.423   2.072   2.213  0.5664  1.2586 -0.3631
 1450SOL    HW2 4490   2.407   2.142   2.346 -1.6601 -0.8752  0.5741
 1451SOL     OW 4491   0.179   3.081   2.805 -0.1783  0.1792  0.3320
 1451SOL    HW1 4492   0.122   3.043   2.738  1.3407  1.5113 -1.8868
 1451SOL    HW2 4493   0.256   3.024   2.806  0.0060  0.4287  0.6133
 1452SOL     OW 4494   3.613   0.231   2.140 -0.5368 -0.3709 -0.2197
 1452SOL    HW1 4495   3.564   0.151   2.124 -0.3079 -0.2982 -1.4411
 1452SOL    HW2 4496   3.617   0.239   2.235  0.1611 -2.2505 -0.0493
 1453SOL     OW 4497   3.055   1.359   2.434  0.6848 -0.2961 -0.4107
 1453SOL    HW1 4498   2.970   1.353   2.477 -0.0681  1.6468 -1.4794
 1453SOL    HW2 4499   3.056   1.287   2.371 -2.5695  2.4653 -4.1517
 1454SOL     OW 4500   3.632   0.479   0.614 -0.6273  0.0481 -0.3185
 1454SOL    HW1 4501   3.636   0.426   0.534  2.2558 -0.5342  0.0954
 1454SOL    HW2 4502   3.541   0.470   0.645 -1.1706 -1.6655 -2.2161
 1455SOL     OW 4503   0.572   0.914   3.207  0.1975 -0.1059  0.3160
 1455SOL    HW1 4504   0.551   0.864   3.128 -0.5754  0.1305  0.3655
 1455SOL    HW2 4505   0.532   0.864   3.278  0.3295  0.0282  0.4869
 1456SOL     OW 4506   1.936   3.214   1.699 -0.3459 -0.1744 -0.7773
 1456SOL    HW1 4507   1.886   3.294   1.681 -1.1491 -0.9284 -2.0832
 1456SOL    HW2 4508   2.007   3.216   1.635 -0.5100 -0.6170 -0.9747
 1457SOL     OW 4509   2.366   2.061   2.526  0.5790  0.6764 -0.1214
 1457SOL    HW1 4510   2.388   2.121   2.597 -1.1982 -1.4369  2.4255
 1457SOL    HW2 4511   2.409   1.978   2.550 -0.0272 -0.0993 -1.5600
 1458SOL     OW 4512   0.553   1.500   2.823 -0.9669  0.1003  0.1474
 1458SOL    HW1 4513   0.493   1.564   2.861 -1.9927 -0.8260  0.1049
 1458SOL    HW2 4514   0.614   1.479   2.894 -1.5154  0.0412  0.6070
 1459SOL     OW 4515   2.782   0.274   0.865 -0.1139  0.5470 -0.3898
 1459SOL    HW1 4516   2.712   0.227   0.820 -0.2767 -0.1397  0.5503
 1459SOL    HW2 4517   2.842   0.206   0.896  0.6365  1.0875 -0.6286
 1460SOL     OW 4518   1.995   1.295   0.687  0.4166  0.5970  0.8224
 1460SOL    HW1 4519   2.017   1.379   0.647 -1.9263  1.1639  0.6344
 1460SOL    HW2 4520   1.970   1.239   0.615 -1.0556  0.7317  1.2089
 1461SOL     OW 4521   0.418   2.224   3.571  0.1379  0.0066 -0.5733
 1461SOL    HW1 4522   0.417   2.189   3.660  2.2487 -0.8564 -0.8150
 1461SOL    HW2 4523   0.412   2.319   3.582 -1.0301 -0.1691  0.3831
 1462SOL     OW 4524   0.143   1.297   3.306  0.3684 -1.0594 -0.4450
 1462SOL    HW1 4525   0.205   1.364   3.334 -2.0025  0.6010  1.2488
 1462SOL    HW2 4526   0.136   1.309   3.212 -1.3586  2.5407 -0.0310
 1463SOL     OW 4527   3.328   2.106   1.385 -0.3035 -0.5163  0.6109
 1463SOL    HW1 4528   3.358   2.015   1.382 -0.4008 -0.5207 -0.9010
 1463SOL    HW2 4529   3.406   2.156   1.408  0.6667 -0.6500 -2.1123
 1464SOL     OW 4530   3.178   0.727   3.451 -0.0284  0.4517  0.1710
 1464SOL    HW1 4531   3.135   0.689   3.375 -0.8272  1.2433  0.1998
 1464SOL    HW2 4532   3.269   0.735   3.426 -0.6097  2.6376 -1.5629
 1465SOL     OW 4533   1.282   1.024   2.406  0.2806  0.7435  0.0329
 1465SOL    HW1 4534   1.202   0.980   2.434  1.4077  0.5894  3.6211
 1465SOL    HW2 4535   1.340   0.954   2.377  0.1653  0.4892  0.4143
 1466SOL     OW 4536   2.778   3.313   3.560 -0.4660 -0.8920 -0.3716
 1466SOL    HW1 4537   2.687   3.320   3.590  0.1328  0.7651  1.1792
 1466SOL    HW2 4538   2.829   3.302   3.640  1.0193  1.9305 -0.8050
 1467SOL     OW 4539   1.062   1.281   0.544  0.0584 -0.0344 -0.0532
 1467SOL    HW1 4540   0.991   1.271   0.608 -1.2389  0.7143 -1.2889
 1467SOL    HW2 4541   1.044   1.365   0.503 -0.1516 -1.2036 -2.5275
 1468SOL     OW 4542   3.136   3.687   3.107  0.7105 -0.1124  0.1979
 1468SOL    HW1 4543   3.222   3.663   3.072  0.6886 -3.9519  2.2517
 1468SOL    HW2 4544   3.099   3.746   3.041  3.4976 -1.1261 -2.5049
 1469SOL     OW 4545   2.881   2.430   3.055  0.4476 -0.4453 -0.2389
 1469SOL    HW1 4546   2.790   2.414   3.034  0.2675 -1.6412  1.3096
 1469SOL    HW2 4547   2.930   2.385   2.987 -0.1044 -0.3779 -0.6863
 1470SOL     OW 4548   1.826   3.238   3.688 -0.7251  0.3681 -0.3072
 1470SOL    HW1 4549   1.765   3.166   3.705 -0.8727  0.6467  0.3777
 1470SOL    HW2 4550   1.885   3.204   3.621 -1.6751  0.1232 -1.0311
 1471SOL     OW 4551   2.844   0.666   1.466  0.2099 -0.2339  0.2136
 1471SOL    HW1 4552   2.801   0.605   1.526 -0.1502 -0.4658 -0.2735
 1471SOL    HW2 4553   2.852   0.617   1.384  2.7191 -0.7267  0.6829
 1472SOL     OW 4554   1.857   2.373   0.726  0.7093  0.2651 -0.2933
 1472SOL    HW1 4555   1.933   2.352   0.673 -0.5411 -2.1866 -1.2792
 1472SOL    HW2 4556   1.792   2.405   0.664  0.8005  2.1218  0.5033
 1473SOL     OW 4557   3.068   3.226   1.863 -0.0704 -0.3471 -0.1032
 1473SOL    HW1 4558   3.012   3.165   1.814  0.5632 -1.2971  0.3185
 1473SOL    HW2 4559   3.124   3.266   1.796  0.3447 -1.1480 -0.2518
 1474SOL     OW 4560   3.552   0.717   1.301  0.0432 -0.4789  0.1404
 1474SOL    HW1 4561   3.541   0.734   1.208 -0.5627 -1.3888  0.0279
 1474SOL    HW2 4562   3.496   0.641   1.318 -1.0371  0.5539  1.5362
 1475SOL     OW 4563   1.746   0.555   1.383 -0.2379  0.2666 -0.1072
 1475SOL    HW1 4564   1.760   0.536   1.290  0.7141  1.6933 -0.2657
 1475SOL    HW2 4565   1.718   0.646   1.386  4.0159  1.7798  1.2628
 1476SOL     OW 4566   1.285   3.264   1.988 -0.4028 -0.2496 -0.0001
 1476SOL    HW1 4567   1.246   3.182   1.958  0.0766 -0.7829  0.7819
 1476SOL    HW2 4568   1.373   3.239   2.017 -0.8921  0.1644  2.0149
 1477SOL     OW 4569   1.410   3.513   3.188 -0.7906 -0.1447 -0.5743
 1477SOL    HW1 4570   1.447   3.530   3.275  1.1688  3.9258 -1.9404
 1477SOL    HW2 4571   1.316   3.523   3.200 -0.7459 -1.4524  1.3388
 1478SOL     OW 4572   0.379   0.813   2.709  0.0126  0.5807 -0.3941
 1478SOL    HW1 4573   0.467   0.784   2.731 -0.2363  0.6875  0.8135
 1478SOL    HW2 4574   0.354   0.759   2.633  0.2378 -1.1310  0.7061
 1479SOL     OW 4575   1.381   3.557   2.197 -0.5508  0.2581  0.2496
 1479SOL    HW1 4576   1.420   3.497   2.133 -0.1646  0.5915  0.1670
 1479SOL    HW2 4577   1.401   3.518   2.282 -0.7535  0.0000  0.1800
 1480SOL     OW 4578   3.449   1.977   0.914  0.0667 -0.1865  0.0518
 1480SOL    HW1 4579   3.489   2.023   0.988  0.9843 -0.8891  0.0008
 1480SOL    HW2 4580   3.355   1.995   0.923  0.2422  0.3431  0.9562
 1481SOL     OW 4581   2.048   3.071   1.470  0.0878  0.6278 -0.3564
 1481SOL    HW1 4582   1.968   3.058   1.420  0.1554  1.4258 -0.7004
 1481SOL    HW2 4583   2.118   3.062   1.405  0.1353  2.5604 -0.6388
 1482SOL     OW 4584   1.787   2.525   0.018 -0.6438 -0.2839 -0.2805
 1482SOL    HW1 4585   1.779   2.545   0.112  0.0252  0.4237 -0.3653
 1482SOL    HW2 4586   1.797   2.430   0.014 -2.0715 -0.4835  0.2701
 1483SOL     OW 4587   1.575   2.278   1.358  0.6208  0.1399 -0.1139
 1483SOL    HW1 4588   1.658   2.326   1.367 -1.7541  4.9615 -0.5876
 1483SOL    HW2 4589   1.554   2.249   1.446  1.4849  1.5437  0.5997
 1484SOL     OW 4590   2.164   0.076   0.703 -0.1272 -0.2823  0.6884
 1484SOL    HW1 4591   2.145   0.077   0.609  0.9237 -1.3906  0.4306
 1484SOL    HW2 4592   2.078   0.079   0.746 -0.6144  0.2551 -0.2965
 1485SOL     OW 4593   3.473   1.680   1.480 -0.4074 -0.4504 -0.0271
 1485SOL    HW1 4594   3.415   1.690   1.556  1.5183  2.0534  1.2358
 1485SOL    HW2 4595   3.561   1.698   1.514  1.1534 -3.4498 -2.0064
 1486SOL     OW 4596   1.516   1.594   1.141 -0.0498 -1.0473 -0.1967
 1486SOL    HW1 4597   1.500   1.644   1.221 -1.3703 -1.9168  0.1147
 1486SOL    HW2 4598   1.442   1.615   1.084  0.9848 -0.2721 -1.3106
 1487SOL     OW 4599   2.428   1.784   1.779  0.1095  0.3798 -0.6301
 1487SOL    HW1 4600   2.368   1.735   1.722  0.6415 -0.2766 -0.6342
 1487SOL    HW2 4601   2.484   1.831   1.718 -0.1875  0.7450 -0.6280
 1488SOL     OW 4602   2.525   1.605   0.028 -0.0511 -0.6941 -0.1431
 1488SOL    HW1 4603   2.580   1.639   0.098  1.0301 -3.3771  0.4621
 1488SOL    HW2 4604   2.545   1.660  -0.048  2.1105 -0.4364  0.5440
 1489SOL     OW 4605   2.185   3.007   2.317  0.4236  0.0919 -0.2556
 1489SOL    HW1 4606   2.161   3.022   2.408  0.3691  0.3846 -0.3166
 1489SOL    HW2 4607   2.152   3.084   2.271  0.8488  0.1610 -0.4483
 1490SOL     OW 4608   0.439   0.956   3.684 -0.3228 -0.6440  0.4805
 1490SOL    HW1 4609   0.526   0.944   3.644 -0.5451 -1.8088  0.3146
 1490SOL    HW2 4610   0.407   1.038   3.647  0.9706  0.1450  1.0420
 1491SOL     OW 4611   0.705   2.373   1.247  0.2891 -0.2654  0.5245
 1491SOL    HW1 4612   0.768   2.303   1.263 -0.3441 -0.2853  3.4269
 1491SOL    HW2 4613   0.734   2.413   1.165  3.7752 -0.6069  1.4169
 1492SOL     OW 4614   0.628   2.351   0.499 -0.6661  0.3390  0.1577
 1492SOL    HW1 4615   0.570   2.347   0.424 -0.0428 -1.6635 -0.2692
 1492SOL    HW2 4616   0.693   2.418   0.476  0.3330 -1.1911 -1.7538
 1493SOL     OW 4617   1.198   1.463   3.514 -0.5537  0.1996 -0.2651
 1493SOL    HW1 4618   1.162   1.497   3.597 -2.1424  0.0050 -0.8298
 1493SOL    HW2 4619   1.268   1.404   3.541 -0.6960  0.5346  0.9240
 1494SOL     OW 4620   2.184   0.862   0.088  0.8194 -0.3617 -0.1261
 1494SOL    HW1 4621   2.149   0.788   0.136  1.7358 -2.1572 -2.0690
 1494SOL    HW2 4622   2.107   0.909   0.057  0.2124 -0.9499  0.4432
 1495SOL     OW 4623   3.047   0.309   1.785  0.1189 -0.1703  0.5349
 1495SOL    HW1 4624   2.967   0.266   1.813  0.2091 -0.8631 -0.2288
 1495SOL    HW2 4625   3.034   0.401   1.807 -0.2609 -0.4996  1.7783
 1496SOL     OW 4626   1.714   0.650   0.682 -0.0891 -0.9529  0.8057
 1496SOL    HW1 4627   1.808   0.649   0.699 -0.3270 -1.6999  2.1566
 1496SOL    HW2 4628   1.675   0.686   0.762 -1.0233 -1.6613  0.6865
 1497SOL     OW 4629   2.337   2.077   1.917  0.1136 -0.2515 -0.4892
 1497SOL    HW1 4630   2.273   2.148   1.911 -0.2273 -0.3806  1.0983
 1497SOL    HW2 4631   2.286   2.001   1.946  0.8614 -0.5239  0.1674
 1498SOL     OW 4632   0.698   2.953   2.478 -0.3569  0.1716  0.0215
 1498SOL    HW1 4633   0.717   2.875   2.425  3.4881  0.6941  0.3409
 1498SOL    HW2 4634   0.702   3.026   2.416 -2.2197  0.3301  0.0310
 1499SOL     OW 4635   1.227  -0.004   1.058  0.1394 -0.1128  0.1448
 1499SOL    HW1 4636   1.211   0.015   0.966  0.5331  0.1997  0.1410
 1499SOL    HW2 4637   1.239   0.081   1.099  0.7379 -0.2859  0.3398
 1500SOL     OW 4638   2.067   0.686   2.348 -0.1222  0.0266 -0.2781
 1500SOL    HW1 4639   2.127   0.616   2.373 -0.1365 -0.5835 -1.8296
 1500SOL    HW2 4640   2.122   0.748   2.301 -0.0456  1.2612  1.3603
 1501SOL     OW 4641   1.117   2.466   1.545  0.8117  0.3713 -0.0163
 1501SOL    HW1 4642   1.101   2.489   1.453  0.3982  0.1321 -0.0067
 1501SOL    HW2 4643   1.183   2.529   1.574 -0.0907  1.3636 -0.0761
 1502SOL     OW 4644   1.227   2.071   0.506 -0.0257 -0.5483 -0.4480
 1502SOL    HW1 4645   1.222   2.162   0.535  3.8984 -0.6701  1.2600
 1502SOL    HW2 4646   1.221   2.075   0.411 -1.0441  1.3060 -0.3498
 1503SOL     OW 4647   1.484   0.908   0.593 -0.3178  0.2808  0.1003
 1503SOL    HW1 4648   1.424   0.964   0.545 -0.5802 -0.5892 -0.6130
 1503SOL    HW2 4649   1.429   0.841   0.632 -0.1372  1.0814  1.8207
 1504SOL     OW 4650   3.631   1.066   0.558  0.2202  0.2927  1.0837
 1504SOL    HW1 4651   3.587   1.004   0.500 -0.8810  0.9956  1.1365
 1504SOL    HW2 4652   3.722   1.038   0.558  0.2822  0.3510 -1.0758
 1505SOL     OW 4653   2.529   3.657   0.748 -0.3671 -0.0208  0.2730
 1505SOL    HW1 4654   2.580   3.734   0.773  2.9793 -2.4035  1.4135
 1505SOL    HW2 4655   2.587   3.606   0.692 -2.4911 -1.6992 -0.5456
 1506SOL     OW 4656   3.261   1.719   1.680 -0.1524 -0.0195 -0.0299
 1506SOL    HW1 4657   3.209   1.795   1.654  1.4692  1.8923  1.9300
 1506SOL    HW2 4658   3.284   1.736   1.771  1.8546 -1.9600 -0.0988
 1507SOL     OW 4659   1.794   3.046   2.705  0.3281  0.4967  0.1796
 1507SOL    HW1 4660   1.870   3.048   2.763 -1.0623 -1.2402  2.2199
 1507SOL    HW2 4661   1.768   3.137   2.694  0.9782  0.9000  1.8357
 1508SOL     OW 4662   3.188   1.714   1.173  0.4563  0.5075 -0.0014
 1508SOL    HW1 4663   3.129   1.718   1.248  0.2867  1.3953 -0.1752
 1508SOL    HW2 4664   3.133   1.734   1.098  1.1136  2.1837 -0.0829
 1509SOL     OW 4665   2.815   2.773   2.539  0.4071 -0.5159  0.5662
 1509SOL    HW1 4666   2.867   2.694   2.555  1.3022 -0.2158 -0.6987
 1509SOL    HW2 4667   2.866   2.843   2.581 -0.3432 -0.5782  1.6150
 1510SOL     OW 4668   2.279   1.108   1.696  0.2793  0.1024  0.3317
 1510SOL    HW1 4669   2.367   1.142   1.678  0.5429  1.1480  3.1467
 1510SOL    HW2 4670   2.251   1.154   1.774 -0.8537 -3.5478  2.3274
 1511SOL     OW 4671   1.498   2.796   0.930  0.7910 -0.1404  0.2274
 1511SOL    HW1 4672   1.528   2.823   1.017 -0.3361  0.7873  0.3434
 1511SOL    HW2 4673   1.447   2.717   0.945  0.7810 -0.1043  0.3822
 1512SOL     OW 4674   2.125   0.333   3.471  0.2653 -0.1039  0.2453
 1512SOL    HW1 4675   2.077   0.415   3.469  3.0011  1.8211  3.5496
 1512SOL    HW2 4676   2.201   0.348   3.415  0.9467 -0.2134  1.1163
 1513SOL     OW 4677   0.394   1.640   2.035 -0.1153 -0.3558 -0.2910
 1513SOL    HW1 4678   0.409   1.658   2.127 -2.4542  1.9749 -0.2751
 1513SOL    HW2 4679   0.464   1.688   1.990  0.8441 -1.2453  0.2047
 1514SOL     OW 4680   0.839   1.378   2.813  0.7621 -0.0926 -0.3112
 1514SOL    HW1 4681   0.862   1.301   2.760  1.7552 -0.2611  0.3214
 1514SOL    HW2 4682   0.906   1.379   2.882 -1.3305 -0.7573  1.8377
 1515SOL     OW 4683   2.121   0.028   2.262  0.1053 -0.1978  0.1490
 1515SOL    HW1 4684   2.112   0.094   2.331 -0.2971 -1.7353  1.6323
 1515SOL    HW2 4685   2.039  -0.021   2.265  0.0507 -0.2657 -1.5020
 1516SOL     OW 4686   3.346   2.698   2.431  0.2526  0.5194  1.0493
 1516SOL    HW1 4687   3.360   2.613   2.389 -2.7568  1.0060 -1.2907
 1516SOL    HW2 4688   3.342   2.678   2.524  0.4360 -1.8002  0.6196
 1517SOL     OW 4689   2.502   0.621   1.787  0.1728  0.0052  0.1412
 1517SOL    HW1 4690   2.523   0.693   1.847  1.5311 -0.1204 -0.1697
 1517SOL    HW2 4691   2.490   0.545   1.844 -2.8228  0.7204  0.6404
 1518SOL     OW 4692   1.686   1.390   2.103 -0.3846 -0.1067 -0.0470
 1518SOL    HW1 4693   1.683   1.370   2.009  0.7851  1.2702 -0.4155
 1518SOL    HW2 4694   1.600   1.366   2.135 -0.0130 -3.0222 -0.9343
 1519SOL     OW 4695   2.236   0.490   2.993  0.1831  0.1867  0.0089
 1519SOL    HW1 4696   2.285   0.504   3.073  0.6004  2.1640 -0.5360
 1519SOL    HW2 4697   2.165   0.555   2.997 -1.0398 -1.0769 -0.2847
 1520SOL     OW 4698   3.556   0.969   1.092  0.0736 -0.0417  0.0913
 1520SOL    HW1 4699   3.586   0.941   1.005  0.7237 -1.2328  0.6693
 1520SOL    HW2 4700   3.461   0.977   1.083 -0.2072 -2.6259 -0.1158
 1521SOL     OW 4701   3.409   0.998   2.940 -0.6215 -0.4168  0.0089
 1521SOL    HW1 4702   3.431   0.955   3.023  0.6096 -0.1902 -0.1782
 1521SOL    HW2 4703   3.490   0.993   2.888 -1.3657 -0.5518 -1.1819
 1522SOL     OW 4704   1.262   3.309   0.888 -0.5931  0.2621 -0.2510
 1522SOL    HW1 4705   1.171   3.320   0.916 -1.4458 -0.0629 -2.6517
 1522SOL    HW2 4706   1.310   3.376   0.936 -2.6279  2.4515 -1.0593
 1523SOL     OW 4707   2.131   1.902   2.001  0.0329 -0.0022 -0.7443
 1523SOL    HW1 4708   2.053   1.860   2.036 -1.4418  2.5044 -0.8011
 1523SOL    HW2 4709   2.115   1.907   1.907  1.8925 -2.5157 -1.3104
 1524SOL     OW 4710   2.917   0.992   2.683 -0.8127  0.2910  0.5349
 1524SOL    HW1 4711   2.912   0.932   2.608 -2.5649 -0.3647  1.1216
 1524SOL    HW2 4712   3.009   1.017   2.687 -0.5878  0.0058 -1.5598
 1525SOL     OW 4713   0.814   1.719   2.832 -0.6635  0.0441  0.3251
 1525SOL    HW1 4714   0.803   1.650   2.767 -1.1895 -0.5575  1.0264
 1525SOL    HW2 4715   0.775   1.797   2.792  2.6412  0.8258 -1.7630
 1526SOL     OW 4716   1.532   2.080   1.929 -0.0393 -0.1979  0.5352
 1526SOL    HW1 4717   1.578   2.105   1.849 -0.0454  0.1640  0.6421
 1526SOL    HW2 4718   1.489   1.997   1.907 -1.6585  0.8648 -0.4937
 1527SOL     OW 4719   0.585   0.102   0.681 -0.3295  0.5441  0.0558
 1527SOL    HW1 4720   0.495   0.122   0.656 -0.0141  0.3945 -1.2829
 1527SOL    HW2 4721   0.577   0.021   0.732 -0.9008  0.1768 -0.5903
 1528SOL     OW 4722   1.030   3.230   3.198  0.0905 -0.3575  1.1231
 1528SOL    HW1 4723   0.992   3.284   3.267 -1.3294 -1.4740  1.2483
 1528SOL    HW2 4724   1.059   3.150   3.242  1.1814 -0.1867  0.7625
 1529SOL     OW 4725   0.311   2.984   0.329  0.1261  0.2757  0.1419
 1529SOL    HW1 4726   0.308   3.062   0.385  0.8667  1.4685 -1.3973
 1529SOL    HW2 4727   0.226   2.984   0.285 -0.6456 -0.9304  1.5425
 1530SOL     OW 4728   3.696   2.042   2.753 -0.4309  0.2562  0.3350
 1530SOL    HW1 4729   3.658   1.965   2.795  0.9329 -1.3727 -1.2277
 1530SOL    HW2 4730   3.761   2.074   2.815 -0.2638 -0.5209  0.5660
 1531SOL     OW 4731   1.314   0.420   2.181 -0.1598  0.3040 -0.0620
 1531SOL    HW1 4732   1.258   0.497   2.191 -0.5378  0.1023 -0.5994
 1531SOL    HW2 4733   1.287   0.381   2.098 -0.1431 -0.5525  0.3265
 1532SOL     OW 4734   2.540   0.861   1.917 -0.1759  0.2294  0.2101
 1532SOL    HW1 4735   2.548   0.896   2.006  2.2401 -0.8578  0.5162
 1532SOL    HW2 4736   2.551   0.936   1.860  0.0364  0.6928  0.8479
 1533SOL     OW 4737   0.186   0.187   3.106  0.1599 -0.1848  0.0535
 1533SOL    HW1 4738   0.207   0.159   3.195  0.7475  1.0707  0.3277
 1533SOL    HW2 4739   0.093   0.210   3.109 -0.2522 -1.7355 -0.0981
 1534SOL     OW 4740   2.078   0.509   0.093 -0.6727  0.2582 -0.3600
 1534SOL    HW1 4741   2.087   0.539   0.002  1.0864  2.6311  0.4902
 1534SOL    HW2 4742   1.994   0.464   0.094 -0.1302 -1.1217 -3.4670
 1535SOL     OW 4743   0.043   0.263   1.020 -1.0539 -0.0320 -0.9528
 1535SOL    HW1 4744   0.003   0.347   1.042 -1.1199 -0.0731 -0.9140
 1535SOL    HW2 4745   0.077   0.230   1.103  0.2006  0.5909 -1.1934
 1536SOL     OW 4746   2.142   1.469   3.057  0.3779 -0.0027 -0.1469
 1536SOL    HW1 4747   2.068   1.424   3.015 -0.1691  1.4206 -0.7751
 1536SOL    HW2 4748   2.146   1.554   3.013  0.2882  1.2573  2.1528
 1537SOL     OW 4749   0.207   0.138   3.374  0.0870  0.7972  0.0495
 1537SOL    HW1 4750   0.291   0.166   3.411  0.5024  0.8867 -0.9371
 1537SOL    HW2 4751   0.142   0.162   3.441  0.4568  3.8273 -0.5431
 1538SOL     OW 4752   0.891   3.698   2.448 -0.2273  0.3188 -0.2551
 1538SOL    HW1 4753   0.823   3.660   2.394 -0.4466 -0.2385  0.4088
 1538SOL    HW2 4754   0.973   3.668   2.409 -0.3425  1.1895 -1.1992
 1539SOL     OW 4755   1.311   1.384   2.686 -0.6063 -0.1830  0.3906
 1539SOL    HW1 4756   1.367   1.425   2.619  1.4170 -0.8249  1.5976
 1539SOL    HW2 4757   1.267   1.313   2.640  1.0820 -0.8860 -0.2113
 1540SOL     OW 4758   2.612   1.407   3.104 -0.1653 -0.8731  0.0435
 1540SOL    HW1 4759   2.553   1.419   3.178  1.0737 -0.5775  1.0127
 1540SOL    HW2 4760   2.560   1.431   3.028 -0.8616  0.8440  1.0049
 1541SOL     OW 4761   2.172   3.361   1.193  0.4571 -0.4832  0.9781
 1541SOL    HW1 4762   2.085   3.328   1.213  0.8032 -1.2536  1.2327
 1541SOL    HW2 4763   2.174   3.367   1.097  1.0033 -3.0049  0.7662
 1542SOL     OW 4764   0.126   0.572   0.740 -0.2065  0.4224  0.9983
 1542SOL    HW1 4765   0.177   0.563   0.659  0.6171  1.9917  1.2947
 1542SOL    HW2 4766   0.040   0.538   0.718 -0.3791  1.9470 -0.9625
 1543SOL     OW 4767   3.104   0.131   1.409 -0.0589 -0.3528 -0.0405
 1543SOL    HW1 4768   3.157   0.207   1.432 -0.5579 -0.0221  0.0224
 1543SOL    HW2 4769   3.023   0.142   1.458  0.6728 -2.0349  1.6834
 1544SOL     OW 4770   1.968   2.668   3.280 -0.6071 -0.1312 -0.4921
 1544SOL    HW1 4771   2.058   2.698   3.290 -0.6871 -0.4451  1.9997
 1544SOL    HW2 4772   1.965   2.585   3.329 -1.8023 -1.1666 -2.1961
 1545SOL     OW 4773   1.535   2.026   1.220 -0.1024  0.4516 -0.3806
 1545SOL    HW1 4774   1.487   2.066   1.147  0.2804  0.9561 -0.3590
 1545SOL    HW2 4775   1.522   2.087   1.293  0.5834  0.6035 -0.3787
 1546SOL     OW 4776   0.617   0.595   2.167 -0.3360 -0.5611  0.1326
 1546SOL    HW1 4777   0.708   0.595   2.196 -0.8049 -2.2878  1.8190
 1546SOL    HW2 4778   0.618   0.548   2.084  0.3814  0.0589 -0.2227
 1547SOL     OW 4779   1.758   1.184   2.368  0.0136  0.0388  0.3214
 1547SOL    HW1 4780   1.759   1.251   2.436 -2.5244 -0.1017  0.6150
 1547SOL    HW2 4781   1.681   1.205   2.314 -0.9947 -2.6442  0.5163
 1548SOL     OW 4782   1.504   3.128   2.395  0.8400 -0.3402 -0.0884
 1548SOL    HW1 4783   1.436   3.068   2.365  0.7733 -0.1055 -0.4034
 1548SOL    HW2 4784   1.579   3.071   2.414  1.1384 -0.4156 -1.4195
 1549SOL     OW 4785   3.574   3.335   1.521 -0.0311 -0.6460 -0.0585
 1549SOL    HW1 4786   3.602   3.250   1.489  0.6882  0.7461 -3.6332
 1549SOL    HW2 4787   3.633   3.355   1.594  1.9393 -1.8387 -1.2640
 1550SOL     OW 4788   1.144   0.484   0.098  0.4026  0.1318 -0.1472
 1550SOL    HW1 4789   1.084   0.413   0.072 -0.0248  0.3667  0.1793
 1550SOL    HW2 4790   1.090   0.542   0.151  0.7735  0.6608 -0.3406
 1551SOL     OW 4791   2.179   3.682   1.281  0.1411 -0.0075 -0.0372
 1551SOL    HW1 4792   2.116   3.610   1.289  2.0565 -1.6930  0.8365
 1551SOL    HW2 4793   2.202   3.703   1.371  0.2301  1.1547 -0.3201
 1552SOL     OW 4794   3.519   3.519   1.337 -0.2754  0.1665  0.0372
 1552SOL    HW1 4795   3.437   3.558   1.366 -0.1813 -0.9465  1.9167
 1552SOL    HW2 4796   3.531   3.442   1.393  1.9319  0.1600 -0.3470
 1553SOL     OW 4797   3.477   0.275   2.837 -0.6333  0.6122 -1.5991
 1553SOL    HW1 4798   3.447   0.209   2.774 -0.4276  1.3565 -2.5001
 1553SOL    HW2 4799   3.562   0.304   2.803  1.1706 -1.4041  0.8582
 1554SOL     OW 4800   1.920   0.352   1.060  0.1996 -0.1800 -0.2688
 1554SOL    HW1 4801   1.829   0.336   1.036 -0.5271 -0.7169  2.4224
 1554SOL    HW2 4802   1.957   0.265   1.073  1.4934 -0.0116 -2.4285
 1555SOL     OW 4803   3.381   1.247   1.079  0.4567 -0.3051  0.3957
 1555SOL    HW1 4804   3.452   1.309   1.063 -0.1483  0.7224  1.5099
 1555SOL    HW2 4805   3.301   1.299   1.073 -0.0620 -0.9331  1.4290
 1556SOL     OW 4806   0.789   1.616   2.207 -0.7425 -0.1091  0.3711
 1556SOL    HW1 4807   0.762   1.644   2.120 -0.3577 -0.6495  0.0678
 1556SOL    HW2 4808   0.721   1.649   2.266 -1.9818 -1.2977 -0.3425
 1557SOL     OW 4809   0.072   0.569   0.098 -0.0019  0.1600 -0.3483
 1557SOL    HW1 4810   0.050   0.480   0.070 -0.9823 -0.1374  1.2251
 1557SOL    HW2 4811   0.141   0.597   0.038  0.9554 -2.0027 -0.3477
 1558SOL     OW 4812   1.462   3.452   0.283  0.4522  0.4687 -0.3834
 1558SOL    HW1 4813   1.444   3.401   0.203  1.7045  0.1119 -0.4532
 1558SOL    HW2 4814   1.557   3.449   0.292  0.2911  0.0214  1.4395
 1559SOL     OW 4815   1.707   2.651   1.132  0.2785  0.5611  0.1133
 1559SOL    HW1 4816   1.802   2.655   1.125  0.2527  2.3852  0.4074
 1559SOL    HW2 4817   1.679   2.742   1.137 -1.4907  0.0596  0.1020
 1560SOL     OW 4818   2.330   2.256   1.052 -0.2948 -0.0369 -0.3137
 1560SOL    HW1 4819   2.332   2.288   1.142 -1.5252  0.4071 -0.4298
 1560SOL    HW2 4820   2.401   2.304   1.008  0.5724 -0.5529  0.4903
 1561SOL     OW 4821   2.871   3.594   1.428 -0.0352  0.6543  0.4418
 1561SOL    HW1 4822   2.880   3.579   1.334  0.1742 -0.5339  0.6423
 1561SOL    HW2 4823   2.864   3.506   1.466  1.1609  1.0530  1.6662
 1562SOL     OW 4824   2.359   3.157   0.193  0.5683  0.0110 -0.6870
 1562SOL    HW1 4825   2.296   3.173   0.123  0.7918  1.3122 -0.6215
 1562SOL    HW2 4826   2.336   3.071   0.228 -2.3934  1.1926  0.5778
 1563SOL     OW 4827   0.153   3.294   0.796  0.5054 -0.7569 -0.1365
 1563SOL    HW1 4828   0.096   3.370   0.806  1.4611 -0.2636  2.2315
 1563SOL    HW2 4829   0.224   3.324   0.738  0.3475 -0.1806 -0.0316
 1564SOL     OW 4830   2.201   1.193   1.444  0.0972 -0.1432  0.9683
 1564SOL    HW1 4831   2.213   1.100   1.427  2.0920  0.2293  0.0093
 1564SOL    HW2 4832   2.198   1.199   1.540  0.9012 -1.1211  1.0776
 1565SOL     OW 4833   2.168   1.070   3.546  0.3659  0.3380  0.2790
 1565SOL    HW1 4834   2.131   1.070   3.458  0.0429  3.5126  0.2986
 1565SOL    HW2 4835   2.256   1.034   3.535  0.5705  1.2734 -1.4920
 1566SOL     OW 4836   0.942   2.002   2.665  0.0950  0.2888  0.9391
 1566SOL    HW1 4837   0.996   2.073   2.632 -0.6877  1.6325  2.4142
 1566SOL    HW2 4838   0.951   2.007   2.761 -0.9002 -0.8558  1.1240
 1567SOL     OW 4839   1.698   1.206   1.876  0.0377 -0.2916  0.1506
 1567SOL    HW1 4840   1.659   1.236   1.794 -0.4617  1.6535  1.0223
 1567SOL    HW2 4841   1.625   1.164   1.923  0.1241 -0.6859 -0.0658
 1568SOL     OW 4842   2.872   3.128   3.016 -0.5910 -0.8586 -0.3290
 1568SOL    HW1 4843   2.784   3.096   2.996 -1.4292  1.2618 -0.1840
 1568SOL    HW2 4844   2.860   3.219   3.043  1.6800 -0.4085 -0.6232
 1569SOL     OW 4845   3.064   0.180   2.189 -0.4329  0.1131 -0.1093
 1569SOL    HW1 4846   2.984   0.190   2.136  0.5272 -1.4686 -1.9984
 1569SOL    HW2 4847   3.135   0.197   2.127  0.7463 -1.8965  0.6197
 1570SOL     OW 4848   3.634   2.511   1.163 -0.4230  0.2253 -0.1530
 1570SOL    HW1 4849   3.549   2.533   1.201 -1.5568 -1.2050 -1.7600
 1570SOL    HW2 4850   3.617   2.502   1.069  1.1057 -1.9242 -0.2772
 1571SOL     OW 4851   3.468   2.004   2.231  0.4414 -0.0394  0.3381
 1571SOL    HW1 4852   3.535   1.989   2.298  0.2236 -1.3314  0.2928
 1571SOL    HW2 4853   3.387   2.016   2.280  0.1436 -1.7315  0.3324
 1572SOL     OW 4854   3.660   0.359   0.380  0.0509  0.4037  0.0040
 1572SOL    HW1 4855   3.740   0.315   0.352  0.6581  1.0382  0.6839
 1572SOL    HW2 4856   3.616   0.383   0.298 -0.6610 -2.0233 -0.3917
 1573SOL     OW 4857   1.480   0.523   2.437 -0.7538 -0.3224  0.4831
 1573SOL    HW1 4858   1.459   0.582   2.509  0.8283  0.5142  0.3029
 1573SOL    HW2 4859   1.434   0.559   2.362  0.3881  0.8718  0.3211
 1574SOL     OW 4860   1.500   2.794   1.501  0.1768  0.0593  0.2058
 1574SOL    HW1 4861   1.564   2.865   1.505 -0.2652  0.4295  1.0325
 1574SOL    HW2 4862   1.450   2.810   1.421  1.6115 -0.6931 -0.8949
 1575SOL     OW 4863   1.635   2.909   1.168 -0.2005 -0.4871 -0.5217
 1575SOL    HW1 4864   1.559   2.930   1.222 -1.2538 -0.7121 -1.8594
 1575SOL    HW2 4865   1.645   2.983   1.108  1.3122  0.0320  0.3117
 1576SOL     OW 4866   1.133   3.641   3.037  0.2475  0.4293  0.5776
 1576SOL    HW1 4867   1.107   3.641   3.129 -2.6898  0.1445 -0.1303
 1576SOL    HW2 4868   1.064   3.690   2.993 -0.5559 -2.5762 -1.8976
 1577SOL     OW 4869   0.303   1.264   1.869 -0.5663  0.0513 -0.4439
 1577SOL    HW1 4870   0.370   1.284   1.935 -1.4425 -2.7967  1.5210
 1577SOL    HW2 4871   0.239   1.334   1.878  0.0540  0.5028  0.7239
 1578SOL     OW 4872   2.189   2.338   2.492  0.0855  0.0223  0.2994
 1578SOL    HW1 4873   2.118   2.389   2.532 -0.4708  0.9252 -1.7207
 1578SOL    HW2 4874   2.146   2.258   2.462  0.2464 -0.0970  0.3851
 1579SOL     OW 4875   1.987   3.279   2.752  0.2382 -0.3572 -0.3416
 1579SOL    HW1 4876   1.923   3.343   2.781  0.3474 -0.4775  0.1723
 1579SOL    HW2 4877   2.048   3.329   2.698 -0.2272 -0.2235 -0.7560
 1580SOL     OW 4878   1.957   1.107   0.493 -0.7350  0.2423  0.3868
 1580SOL    HW1 4879   1.892   1.042   0.518  0.1685 -0.0488  2.1884
 1580SOL    HW2 4880   2.030   1.055   0.457 -0.9675  0.4660 -0.4273
 1581SOL     OW 4881   1.483   0.403   1.846 -0.3795  0.0174  0.4995
 1581SOL    HW1 4882   1.550   0.349   1.887 -0.1458 -0.0325  0.0651
 1581SOL    HW2 4883   1.460   0.356   1.766 -0.5680  0.2888  0.3919
 1582SOL     OW 4884   1.706   0.550   1.109  0.0641 -0.2441 -0.2549
 1582SOL    HW1 4885   1.626   0.531   1.159 -0.3158 -1.4209 -1.2513
 1582SOL    HW2 4886   1.674   0.573   1.022  0.7784  0.4150 -0.3466
 1583SOL     OW 4887   2.491   2.148   3.472 -0.1597  0.8876 -0.2938
 1583SOL    HW1 4888   2.411   2.099   3.452  0.3458 -0.6552  1.2024
 1583SOL    HW2 4889   2.493   2.153   3.567  1.6394  0.6699 -0.2947
 1584SOL     OW 4890   3.528   1.630   0.508 -0.1988 -0.2650 -0.2788
 1584SOL    HW1 4891   3.571   1.707   0.544 -0.7388 -0.0902  0.0089
 1584SOL    HW2 4892   3.461   1.608   0.572  0.2665 -1.2708 -0.1180
 1585SOL     OW 4893   2.731   2.570   3.231 -0.7352  0.6766  1.1278
 1585SOL    HW1 4894   2.797   2.511   3.195 -2.2960  0.3296 -1.4485
 1585SOL    HW2 4895   2.782   2.640   3.273  1.2940  0.3238 -0.5620
 1586SOL     OW 4896   0.443   3.608   0.738  0.1925 -0.8382  0.3632
 1586SOL    HW1 4897   0.461   3.566   0.822 -2.8003 -1.6526  0.7191
 1586SOL    HW2 4898   0.358   3.651   0.750 -0.0350 -0.4733 -2.0453
 1587SOL     OW 4899   0.312   1.746   3.503 -0.4532 -0.5027 -0.2055
 1587SOL    HW1 4900   0.369   1.819   3.523 -1.7022  0.4634 -0.0716
 1587SOL    HW2 4901   0.230   1.766   3.548 -0.7920 -2.0316 -0.0820
 1588SOL     OW 4902   2.983   3.316   1.240 -0.4048  0.0394 -0.0170
 1588SOL    HW1 4903   2.980   3.250   1.171  1.7987  0.9363 -1.0509
 1588SOL    HW2 4904   2.924   3.385   1.211  0.3502  0.3158 -0.9185
 1589SOL     OW 4905   3.470   2.215   3.022  0.5042 -0.1508 -0.1979
 1589SOL    HW1 4906   3.399   2.279   3.030 -0.9190 -1.5118 -1.1983
 1589SOL    HW2 4907   3.456   2.156   3.096  1.7292  0.5672  0.6441
 1590SOL     OW 4908   0.199   1.857   0.206 -0.0143  0.4375  0.6926
 1590SOL    HW1 4909   0.218   1.891   0.294  2.3623  1.2251 -0.0659
 1590SOL    HW2 4910   0.178   1.765   0.220 -0.1060  0.6480  2.1144
 1591SOL     OW 4911   3.464   3.370   0.616  0.0204  0.4962 -1.1937
 1591SOL    HW1 4912   3.452   3.341   0.706 -0.7502 -0.0937 -1.4699
 1591SOL    HW2 4913   3.558   3.365   0.601  0.2025  1.0946 -0.2685
 1592SOL     OW 4914   0.099   1.551   2.398 -0.5494  0.2800 -0.2695
 1592SOL    HW1 4915   0.100   1.479   2.335 -0.2442  0.0640 -0.0235
 1592SOL    HW2 4916   0.014   1.593   2.386  0.0609  1.1301 -1.8056
 1593SOL     OW 4917   1.887   2.659   0.685  0.3405  0.3111 -0.0429
 1593SOL    HW1 4918   1.955   2.617   0.736  0.7695  1.3464  0.2585
 1593SOL    HW2 4919   1.903   2.629   0.595  1.1592  0.4975  0.0317
 1594SOL     OW 4920   0.091   3.501   3.436 -0.0241 -0.2156  0.1383
 1594SOL    HW1 4921   0.137   3.555   3.372 -1.0880  0.1830 -0.3286
 1594SOL    HW2 4922   0.029   3.450   3.382  0.1517 -1.0245  0.6951
 1595SOL     OW 4923   1.424   1.044   0.857 -0.0293 -0.1827 -0.0958
 1595SOL    HW1 4924   1.367   0.988   0.804  0.3699 -0.6966  0.0109
 1595SOL    HW2 4925   1.513   1.016   0.835  0.2130  0.9336 -0.6222
 1596SOL     OW 4926   2.880   1.956   2.883  0.2346  0.2860  0.4019
 1596SOL    HW1 4927   2.861   2.003   2.964 -1.9399 -0.2949  0.2814
 1596SOL    HW2 4928   2.801   1.906   2.865  0.2908  1.1110 -2.5936
 1597SOL     OW 4929   2.749   2.137   3.361 -0.0658 -0.0242  0.0957
 1597SOL    HW1 4930   2.658   2.141   3.389 -0.6277 -0.2008 -1.5987
 1597SOL    HW2 4931   2.766   2.044   3.348  0.5573 -0.0453  0.9465
 1598SOL     OW 4932   3.493   0.350   3.636 -0.2613 -0.9461  0.1384
 1598SOL    HW1 4933   3.404   0.328   3.607  0.3565 -0.0787 -2.7525
 1598SOL    HW2 4934   3.547   0.279   3.603  0.6376  0.6554 -2.0894
 1599SOL     OW 4935   2.390   0.010   3.011  0.0358 -0.2368 -0.0451
 1599SOL    HW1 4936   2.419  -0.053   2.944 -0.4763 -0.5518  0.0206
 1599SOL    HW2 4937   2.438   0.090   2.991 -1.4218  0.2386 -1.9062
 1600SOL     OW 4938   3.463   3.253   2.637 -0.4073 -0.2872  0.1565
 1600SOL    HW1 4939   3.405   3.181   2.613 -1.6145  0.8978 -0.6110
 1600SOL    HW2 4940   3.510   3.275   2.556  1.4443 -1.4645  0.8444
 1601SOL     OW 4941   0.322   0.663   1.860 -0.4580  0.3856  0.0192
 1601SOL    HW1 4942   0.390   0.634   1.920 -0.7286  1.4329  0.8509
 1601SOL    HW2 4943   0.366   0.724   1.801 -0.4528  0.2490 -0.1208
 1602SOL     OW 4944   1.874   2.991   0.535  0.6735  0.1767  0.1306
 1602SOL    HW1 4945   1.909   3.062   0.589  2.1282 -1.2855  1.2073
 1602SOL    HW2 4946   1.829   2.934   0.597  1.6878 -1.1124 -0.2808
 1603SOL     OW 4947   0.480   2.524   1.348 -0.0433  0.3340 -0.0100
 1603SOL    HW1 4948   0.564   2.482   1.331 -1.2064 -1.5560 -1.4619
 1603SOL    HW2 4949   0.490   2.612   1.311  1.1807  0.0240 -0.4699
 1604SOL     OW 4950   1.341   3.223   1.524 -0.2375 -0.4577 -0.1177
 1604SOL    HW1 4951   1.313   3.152   1.582 -0.2466  0.0109  0.4557
 1604SOL    HW2 4952   1.304   3.302   1.563 -0.5013 -0.1632 -0.9256
 1605SOL     OW 4953   3.108   1.267   0.184 -0.0526 -0.4563  0.6929
 1605SOL    HW1 4954   3.203   1.264   0.192 -0.1494 -2.4201  1.9128
 1605SOL    HW2 4955   3.088   1.206   0.113 -0.3708  0.8064 -0.3303
 1606SOL     OW 4956   1.420   3.050   2.729 -0.0017  0.5434  0.3050
 1606SOL    HW1 4957   1.403   2.961   2.697 -1.4631  0.6106  0.8248
 1606SOL    HW2 4958   1.502   3.075   2.686 -0.1713 -0.6104 -0.7695
 1607SOL     OW 4959   2.113   2.298   0.614  0.8300  0.5043 -0.5505
 1607SOL    HW1 4960   2.110   2.259   0.526  2.4555  0.3750 -0.5889
 1607SOL    HW2 4961   2.116   2.222   0.673  0.8668  0.5829 -0.4518
 1608SOL     OW 4962   1.792   1.920   1.218  0.4536  0.5392 -0.4669
 1608SOL    HW1 4963   1.704   1.959   1.214 -0.0492 -0.3773  0.9478
 1608SOL    HW2 4964   1.777   1.832   1.252  2.0673  0.9458  1.4573
 1609SOL     OW 4965   0.984   0.118   1.486  0.8928 -0.0140 -0.5215
 1609SOL    HW1 4966   1.014   0.204   1.514  0.9456 -0.1680 -0.1102
 1609SOL    HW2 4967   0.996   0.119   1.391  0.2341  0.6927 -0.6106
 1610SOL     OW 4968   3.633   2.398   0.916  0.5376  0.6978 -0.6442
 1610SOL    HW1 4969   3.560   2.336   0.911  1.6531 -0.6026 -4.2935
 1610SOL    HW2 4970   3.711   2.344   0.908  2.1382  2.0233  3.3907
 1611SOL     OW 4971   3.601   2.774   2.926 -0.7919  0.8458 -0.5308
 1611SOL    HW1 4972   3.671   2.709   2.924 -0.1845  1.5126 -1.2538
 1611SOL    HW2 4973   3.596   2.800   3.018  0.0107  0.8941 -0.4925
 1612SOL     OW 4974   1.718   2.129   2.728  0.1325 -0.2515  0.2898
 1612SOL    HW1 4975   1.797   2.138   2.675  0.7764 -1.4503  1.0020
 1612SOL    HW2 4976   1.704   2.216   2.766  0.0470  0.4470 -1.2466
 1613SOL     OW 4977   0.413   2.979   2.138  0.9430 -0.1651  0.8330
 1613SOL    HW1 4978   0.489   2.951   2.087  0.6635  1.4706 -0.5641
 1613SOL    HW2 4979   0.349   3.008   2.073  0.3006  1.3230  2.0556
 1614SOL     OW 4980   0.548   1.858   3.360  0.2980 -0.4776 -0.5965
 1614SOL    HW1 4981   0.610   1.890   3.425 -2.1991  1.2072  1.1883
 1614SOL    HW2 4982   0.501   1.937   3.332 -0.3994 -1.5324 -2.5818
 1615SOL     OW 4983   2.138   2.090   1.219 -0.2008 -0.1220  0.0169
 1615SOL    HW1 4984   2.085   2.151   1.271  1.0822 -0.0316  1.3053
 1615SOL    HW2 4985   2.221   2.135   1.207  1.2542 -2.0151  2.1024
 1616SOL     OW 4986   2.936   0.413   2.774  0.1483  0.7913  0.7279
 1616SOL    HW1 4987   2.944   0.502   2.741  1.4882  1.1643  1.9453
 1616SOL    HW2 4988   3.025   0.378   2.773 -0.5263 -1.0544 -1.0092
 1617SOL     OW 4989   0.158   0.315   1.604 -0.0981 -0.2446  0.1465
 1617SOL    HW1 4990   0.171   0.233   1.651 -1.0909 -0.1628  0.5985
 1617SOL    HW2 4991   0.065   0.335   1.617  0.5355  2.0012  1.7569
 1618SOL     OW 4992   1.144   2.783   1.945  0.1210  0.0331  0.0409
 1618SOL    HW1 4993   1.217   2.771   1.884  0.7234  0.1751  0.7324
 1618SOL    HW2 4994   1.114   2.694   1.964  0.0928 -0.0236 -0.2578
 1619SOL     OW 4995   2.596   2.974   0.322 -0.0034  0.4835  0.7511
 1619SOL    HW1 4996   2.565   3.041   0.382 -0.8317  0.7102  0.0886
 1619SOL    HW2 4997   2.584   2.891   0.369 -4.3808  0.2182 -0.4299
 1620SOL     OW 4998   0.030   2.149   1.711  0.0624 -0.5066  0.0059
 1620SOL    HW1 4999   0.083   2.094   1.768 -1.0715 -2.1390 -0.4622
 1620SOL    HW2 5000  -0.027   2.197   1.770  0.5266 -0.3919  0.3729
 1621SOL     OW 5001   2.770   1.851   1.912  0.3951 -0.2203  0.5710
 1621SOL    HW1 5002   2.755   1.761   1.885  0.9053 -0.7376  1.8886
 1621SOL    HW2 5003   2.685   1.894   1.904  0.2787 -0.6581 -0.6154
 1622SOL     OW 5004   0.891   2.440   1.989 -0.0185 -0.5455  0.7877
 1622SOL    HW1 5005   0.933   2.356   1.967 -0.2067 -0.5042  0.2580
 1622SOL    HW2 5006   0.957   2.488   2.038  0.4077 -0.6448  0.3099
 1623SOL     OW 5007   2.626   0.727   3.296 -0.0524  0.7660 -0.5501
 1623SOL    HW1 5008   2.555   0.780   3.260 -1.9164  0.8355  2.7776
 1623SOL    HW2 5009   2.651   0.773   3.376  0.8400 -1.4467  0.5186
 1624SOL     OW 5010   1.986   0.083   3.330  0.5976 -0.0138 -0.2069
 1624SOL    HW1 5011   1.914   0.051   3.275 -0.4741  0.9368  0.5891
 1624SOL    HW2 5012   1.967   0.176   3.342  2.1042  0.3135 -0.1619
 1625SOL     OW 5013   0.415   2.147   1.471 -0.0515  0.0988  0.2485
 1625SOL    HW1 5014   0.381   2.180   1.554  1.1483 -0.2594  0.9066
 1625SOL    HW2 5015   0.364   2.193   1.404 -0.1218  1.4047  1.1637
 1626SOL     OW 5016   0.290   3.239   0.420 -0.3024 -0.0934 -0.1161
 1626SOL    HW1 5017   0.300   3.285   0.337 -1.0733  1.5819  0.6646
 1626SOL    HW2 5018   0.198   3.253   0.444 -0.0539 -0.4179  1.0901
 1627SOL     OW 5019   3.447   1.278   2.949 -0.3417  0.2068 -0.4755
 1627SOL    HW1 5020   3.538   1.262   2.923 -0.3857 -1.7806  0.4054
 1627SOL    HW2 5021   3.411   1.191   2.964 -0.9073  1.0208  4.1231
 1628SOL     OW 5022   1.232   2.263   2.890  0.0965  0.6326 -0.1229
 1628SOL    HW1 5023   1.308   2.285   2.943 -0.7903 -0.6468  1.8006
 1628SOL    HW2 5024   1.160   2.254   2.953 -1.6283  1.5461 -1.8277
 1629SOL     OW 5025   0.592   2.997   3.461 -0.5885 -0.3510 -0.5705
 1629SOL    HW1 5026   0.537   3.066   3.497 -2.2141 -1.6917 -0.3737
 1629SOL    HW2 5027   0.680   3.017   3.492 -0.8421  2.0784 -1.2225
 1630SOL     OW 5028   3.405   3.642   1.041 -0.1523 -0.0099 -0.0933
 1630SOL    HW1 5029   3.484   3.652   1.095 -0.8501  1.8031  0.6713
 1630SOL    HW2 5030   3.422   3.695   0.964 -0.3596 -0.1625 -0.2439
 1631SOL     OW 5031   1.496   1.126   2.035 -0.1612 -0.1862 -0.1510
 1631SOL    HW1 5032   1.530   1.039   2.057  1.5605  0.5116  0.1152
 1631SOL    HW2 5033   1.473   1.165   2.119 -0.7238 -0.2987 -0.2518
 1632SOL     OW 5034   2.435   3.149   2.593 -0.4278  0.5099 -0.3396
 1632SOL    HW1 5035   2.506   3.085   2.598 -0.0457  1.0308  1.9379
 1632SOL    HW2 5036   2.477   3.229   2.563  0.2498  1.0930  1.9399
 1633SOL     OW 5037   3.497   0.544   2.210 -0.3730 -0.2199 -0.1519
 1633SOL    HW1 5038   3.590   0.522   2.197 -1.0345 -2.7344 -1.2589
 1633SOL    HW2 5039   3.462   0.470   2.260 -1.7922  0.7231  0.3043
 1634SOL     OW 5040   1.922   3.256   1.221  0.2344  0.8021  0.4249
 1634SOL    HW1 5041   1.867   3.195   1.173  0.8858  0.5796 -0.0546
 1634SOL    HW2 5042   1.949   3.209   1.300 -1.1700  1.3094  1.2525
 1635SOL     OW 5043   0.352   0.968   1.686  0.2298  0.1887  0.4824
 1635SOL    HW1 5044   0.405   1.027   1.632  1.8838 -2.0268 -0.4971
 1635SOL    HW2 5045   0.275   0.948   1.633 -0.2031  1.2138  0.7093
 1636SOL     OW 5046   0.938   0.484   2.045 -0.0243  0.2591  0.0041
 1636SOL    HW1 5047   0.923   0.539   1.968  0.4165  1.4723  0.7671
 1636SOL    HW2 5048   1.017   0.434   2.023  1.9009  2.7713  0.7808
 1637SOL     OW 5049   3.445   2.538   0.673  0.0601 -0.3464  0.9477
 1637SOL    HW1 5050   3.358   2.528   0.712  0.5408  0.0576  2.1748
 1637SOL    HW2 5051   3.488   2.454   0.689  0.1860 -0.2513  1.1129
 1638SOL     OW 5052   3.361   2.077   0.227  0.2685  0.2024 -0.0787
 1638SOL    HW1 5053   3.266   2.087   0.231  0.1573 -1.1129  2.2462
 1638SOL    HW2 5054   3.395   2.152   0.276  0.4188  0.4977 -0.6324
 1639SOL     OW 5055   0.629   0.453   1.906  0.2184 -0.8238  0.5048
 1639SOL    HW1 5056   0.607   0.362   1.884  0.0045 -1.1907  2.0882
 1639SOL    HW2 5057   0.724   0.453   1.916  0.3069 -0.6753 -0.2856
 1640SOL     OW 5058   3.152   2.494   1.075 -0.4037  0.1789  0.3830
 1640SOL    HW1 5059   3.167   2.421   1.014 -0.2889  0.0249  0.5936
 1640SOL    HW2 5060   3.151   2.453   1.161  3.2804  0.8552  0.8814
 1641SOL     OW 5061   2.855   0.407   0.510  0.1161 -0.1096  0.0547
 1641SOL    HW1 5062   2.871   0.334   0.569  1.6929  0.2073  0.0827
 1641SOL    HW2 5063   2.807   0.471   0.563  1.7531  0.2923  1.1410
 1642SOL     OW 5064   2.911   3.201   0.066 -0.4110 -0.2438 -0.0741
 1642SOL    HW1 5065   2.895   3.220   0.158  0.9733  0.5959  0.0148
 1642SOL    HW2 5066   2.838   3.144   0.040 -2.7489  2.2356  0.6309
 1643SOL     OW 5067   1.767   0.493   2.379 -0.3390 -0.2560  0.3452
 1643SOL    HW1 5068   1.811   0.563   2.331  1.7686 -0.9275  1.1825
 1643SOL    HW2 5069   1.674   0.515   2.373  0.1888  2.1974 -0.0365
 1644SOL     OW 5070   3.105   2.810   3.260  0.4648 -0.2220 -0.0776
 1644SOL    HW1 5071   3.095   2.902   3.283 -0.8735 -0.5527  0.7635
 1644SOL    HW2 5072   3.168   2.810   3.188  0.0623  1.3825 -0.4627
 1645SOL     OW 5073   2.800   3.699   0.818  0.5160  0.0732 -0.0224
 1645SOL    HW1 5074   2.783   3.605   0.811  0.0451  0.0759  0.9157
 1645SOL    HW2 5075   2.883   3.705   0.865  1.5843  0.1169 -1.8199
 1646SOL     OW 5076   1.539   3.698   1.649 -0.5312 -0.1279  0.2082
 1646SOL    HW1 5077   1.587   3.705   1.567 -1.2483 -0.3055 -0.2343
 1646SOL    HW2 5078   1.599   3.652   1.708 -0.1744 -0.3780 -0.3404
 1647SOL     OW 5079   2.199   1.700   2.566 -0.6179 -0.0393 -0.0662
 1647SOL    HW1 5080   2.284   1.742   2.575  0.3840 -1.9626  0.0349
 1647SOL    HW2 5081   2.142   1.768   2.530  1.5766  0.6233 -2.5794
 1648SOL     OW 5082   3.708   2.630   3.379 -0.0141 -0.1283 -0.3680
 1648SOL    HW1 5083   3.632   2.645   3.323  0.3092  1.2792 -0.4665
 1648SOL    HW2 5084   3.783   2.649   3.322  0.3590 -0.0099  0.1625
 1649SOL     OW 5085   0.805   2.605   2.212 -0.8578  0.0199  0.0832
 1649SOL    HW1 5086   0.757   2.524   2.230 -1.4162  0.0329 -1.2164
 1649SOL    HW2 5087   0.774   2.666   2.279  3.2938 -2.0885  4.5303
 1650SOL     OW 5088   0.687   0.895   2.415 -0.3835 -0.2920  0.3048
 1650SOL    HW1 5089   0.605   0.897   2.366 -1.7423  3.3381  2.3439
 1650SOL    HW2 5090   0.753   0.866   2.351 -2.8828 -1.4855 -1.9123
 1651SOL     OW 5091   2.425   0.863   3.196 -0.3799  0.1436 -0.1674
 1651SOL    HW1 5092   2.426   0.958   3.205 -1.5545  0.0600  1.4329
 1651SOL    HW2 5093   2.354   0.845   3.134 -1.6167  0.2897  1.1288
 1652SOL     OW 5094   2.429   0.894   0.255 -0.2151  0.0600 -0.1559
 1652SOL    HW1 5095   2.502   0.883   0.316  0.2502  1.8161 -0.3358
 1652SOL    HW2 5096   2.397   0.805   0.239  1.7303 -0.7373  0.0943
 1653SOL     OW 5097   0.102   1.603   0.540 -0.5370 -0.0294 -0.2648
 1653SOL    HW1 5098   0.194   1.577   0.529 -0.9870 -2.8477  1.5554
 1653SOL    HW2 5099   0.077   1.565   0.624 -4.0091 -1.4040 -1.7372
 1654SOL     OW 5100   1.240   3.461   2.861 -0.3515 -0.1712  0.4128
 1654SOL    HW1 5101   1.205   3.527   2.921 -1.3245  0.6073 -0.9677
 1654SOL    HW2 5102   1.199   3.379   2.890 -1.8998  0.4146  0.0149
 1655SOL     OW 5103   0.254   2.478   3.275  0.3835 -0.6033 -0.0610
 1655SOL    HW1 5104   0.165   2.513   3.276  0.0676 -1.2135 -2.1823
 1655SOL    HW2 5105   0.257   2.421   3.198  2.8200 -0.0290 -0.4812
 1656SOL     OW 5106   0.368   1.344   3.080  0.4892  0.5112  0.3488
 1656SOL    HW1 5107   0.324   1.406   3.023  2.8331 -0.3969 -2.7090
 1656SOL    HW2 5108   0.462   1.362   3.069  1.1861 -2.2592  0.8360
 1657SOL     OW 5109   0.524   3.158   0.569 -0.6340 -0.7314  0.0801
 1657SOL    HW1 5110   0.549   3.076   0.525  0.7614 -0.1352 -0.2938
 1657SOL    HW2 5111   0.464   3.200   0.507 -0.8634 -1.1722 -0.0049
 1658SOL     OW 5112   0.418   2.343   1.933  0.0775  0.6104  0.6655
 1658SOL    HW1 5113   0.368   2.406   1.983  0.8014  1.9466 -0.2380
 1658SOL    HW2 5114   0.502   2.386   1.916 -0.2267  0.3559 -1.8920
 1659SOL     OW 5115   1.072   0.884   2.498  0.2724 -0.6051 -0.2724
 1659SOL    HW1 5116   1.054   0.790   2.500  1.8612 -0.9551  1.5532
 1659SOL    HW2 5117   1.001   0.924   2.549  0.6149 -1.0858  0.6109
 1660SOL     OW 5118   1.769   0.081   2.334  0.3912  0.6993  0.8967
 1660SOL    HW1 5119   1.694   0.138   2.349 -1.0392 -0.9141  0.1901
 1660SOL    HW2 5120   1.844   0.140   2.331 -0.9231  2.4425  0.9204
 1661SOL     OW 5121   1.204   0.782   2.839  0.3591 -0.4248  0.3188
 1661SOL    HW1 5122   1.222   0.692   2.868  0.2168 -0.3170  0.7514
 1661SOL    HW2 5123   1.281   0.832   2.866 -0.1659 -0.1484  1.3243
 1662SOL     OW 5124   2.020   1.150   2.650 -0.1385  0.5438  0.5142
 1662SOL    HW1 5125   2.075   1.181   2.578 -0.1218 -0.7693 -0.0588
 1662SOL    HW2 5126   1.980   1.230   2.685  0.5520  1.2997 -0.3685
 1663SOL     OW 5127   3.409   3.154   1.125 -1.3174  0.1936  0.2762
 1663SOL    HW1 5128   3.382   3.242   1.098  1.4929  0.3865 -2.5142
 1663SOL    HW2 5129   3.478   3.168   1.189 -2.4753 -0.1040  1.6341
 1664SOL     OW 5130   3.286   0.993   1.047 -0.3961 -0.0459  0.1081
 1664SOL    HW1 5131   3.310   1.085   1.061  1.2299 -0.4493  0.1258
 1664SOL    HW2 5132   3.223   0.996   0.975 -1.0166  1.1494  0.6585
 1665SOL     OW 5133   2.328   0.418   1.949 -0.4162 -0.1243 -0.6115
 1665SOL    HW1 5134   2.245   0.429   1.902 -1.6821 -1.1732  1.2508
 1665SOL    HW2 5135   2.338   0.323   1.958 -0.4593  0.0335  1.5550
 1666SOL     OW 5136   1.359   3.482   1.130  0.3234 -0.3011  0.0310
 1666SOL    HW1 5137   1.321   3.419   1.191 -0.2718 -0.9434 -0.9652
 1666SOL    HW2 5138   1.291   3.549   1.121  0.6621  0.1179  0.5334
 1667SOL     OW 5139   2.182   1.316   0.887  0.1147 -0.1861  0.2167
 1667SOL    HW1 5140   2.252   1.298   0.824  1.0711  0.2104  1.1546
 1667SOL    HW2 5141   2.103   1.280   0.845  1.1811 -2.4996  0.0408
 1668SOL     OW 5142   2.801   1.237   1.873 -0.0951  0.1641 -0.3656
 1668SOL    HW1 5143   2.860   1.168   1.843  3.1652  2.4071  0.3583
 1668SOL    HW2 5144   2.771   1.280   1.793  1.1968  0.4375 -0.7226
 1669SOL     OW 5145   2.873   0.933   1.470 -0.2783  0.2928 -0.1422
 1669SOL    HW1 5146   2.870   0.839   1.456  2.1157  0.0830  0.2944
 1669SOL    HW2 5147   2.884   0.943   1.565  1.9070  0.8458 -0.4053
 1670SOL     OW 5148   1.375   3.522   0.538 -0.3507 -0.0451 -0.1085
 1670SOL    HW1 5149   1.375   3.616   0.521  0.7342 -0.1305 -0.6896
 1670SOL    HW2 5150   1.401   3.483   0.455  1.1269 -0.7246  0.6296
 1671SOL     OW 5151   1.055   3.414   2.330 -0.3861 -0.4634 -0.0456
 1671SOL    HW1 5152   1.016   3.428   2.416  0.9591 -0.3499  0.5701
 1671SOL    HW2 5153   1.116   3.341   2.343 -0.4488 -0.7050 -1.0039
 1672SOL     OW 5154   2.900   1.663   3.468 -0.2933  0.2880  0.1441
 1672SOL    HW1 5155   2.980   1.630   3.510  0.5803  0.2940 -1.4534
 1672SOL    HW2 5156   2.874   1.594   3.407 -0.7134  0.8772 -0.3567
 1673SOL     OW 5157   1.048   2.593   0.000  0.1332  0.3620 -0.2798
 1673SOL    HW1 5158   0.954   2.608  -0.001  0.0615 -0.0205  0.1909
 1673SOL    HW2 5159   1.083   2.660   0.058  0.0174 -0.1608  0.4127
 1674SOL     OW 5160   2.596   0.203   0.678  0.2849  0.2451  0.2948
 1674SOL    HW1 5161   2.571   0.290   0.648 -1.0487  0.2351  1.2588
 1674SOL    HW2 5162   2.543   0.189   0.757  1.0100 -1.1495  0.5738
 1675SOL     OW 5163   2.296   2.875   0.262 -0.2954 -0.4253 -0.3565
 1675SOL    HW1 5164   2.305   2.787   0.225 -0.1959  0.0143 -1.4165
 1675SOL    HW2 5165   2.240   2.862   0.339 -0.3348 -1.4062 -0.5286
 1676SOL     OW 5166   3.110   1.118   3.655  0.2118 -0.0715 -0.0522
 1676SOL    HW1 5167   3.204   1.104   3.663  0.0788 -0.2383  1.5464
 1676SOL    HW2 5168   3.083   1.058   3.585  1.1466 -0.7217  0.1199
 1677SOL     OW 5169   3.564   1.785   0.246 -0.5048 -0.0628  0.3173
 1677SOL    HW1 5170   3.616   1.803   0.168 -1.5643  0.4855 -0.2853
 1677SOL    HW2 5171   3.559   1.870   0.291 -1.9855  0.2237 -0.3374
 1678SOL     OW 5172   3.325   2.314   3.385  0.0826  0.0817  0.4907
 1678SOL    HW1 5173   3.338   2.228   3.344 -0.5284 -0.2760  1.0349
 1678SOL    HW2 5174   3.241   2.307   3.429 -0.3569  1.2355 -0.1355
 1679SOL     OW 5175   0.196   3.058   1.519  0.7202  0.3077 -0.4265
 1679SOL    HW1 5176   0.214   2.965   1.507  0.5347  0.1768  0.2449
 1679SOL    HW2 5177   0.172   3.090   1.432  1.5831 -0.0866 -0.8244
 1680SOL     OW 5178   1.059   1.058   2.134 -0.4845 -0.3268 -0.2425
 1680SOL    HW1 5179   1.127   1.023   2.076  0.1080  0.2030  0.1146
 1680SOL    HW2 5180   1.028   0.983   2.184  1.2494 -0.2616  1.0078
 1681SOL     OW 5181   2.636   2.210   0.692 -0.0987 -0.0075  0.5889
 1681SOL    HW1 5182   2.729   2.190   0.694 -0.5040 -2.1035  0.3833
 1681SOL    HW2 5183   2.630   2.294   0.645  1.6175 -0.1340  0.0992
 1682SOL     OW 5184   3.026   0.255   0.379 -0.0704 -0.2811 -0.5868
 1682SOL    HW1 5185   2.993   0.183   0.433  1.9538  0.0732  1.2461
 1682SOL    HW2 5186   2.977   0.332   0.410 -0.3620 -0.4126 -0.7122
 1683SOL     OW 5187   3.415   3.478   3.437  0.4261 -0.1535 -0.0674
 1683SOL    HW1 5188   3.348   3.415   3.464 -2.4022  3.7004  3.1182
 1683SOL    HW2 5189   3.381   3.515   3.356  0.5310 -0.6231 -0.3286
 1684SOL     OW 5190   1.325   2.752   1.732  0.0859 -0.2590  0.1563
 1684SOL    HW1 5191   1.384   2.785   1.800 -0.3493  1.4323 -0.2559
 1684SOL    HW2 5192   1.371   2.768   1.650 -0.4754  0.0553 -0.1021
 1685SOL     OW 5193   3.609   3.550   2.002  0.9048  0.0127 -0.8924
 1685SOL    HW1 5194   3.527   3.547   1.952  0.3342  2.1940 -0.1845
 1685SOL    HW2 5195   3.624   3.460   2.029 -1.9044 -0.2982 -0.0513
 1686SOL     OW 5196   1.798   3.319   1.926  0.1323  0.5404  0.1405
 1686SOL    HW1 5197   1.848   3.274   1.858  1.1845 -0.0472  1.2746
 1686SOL    HW2 5198   1.831   3.283   2.009 -0.4551  1.9147  1.0097
 1687SOL     OW 5199   0.094   2.306   0.077  0.1694 -0.3107 -0.3440
 1687SOL    HW1 5200   0.052   2.367   0.016 -0.7306 -0.6728 -0.1016
 1687SOL    HW2 5201   0.091   2.222   0.032  0.8933 -0.2926 -0.4378
 1688SOL     OW 5202   2.184   2.557   0.534 -0.4322  0.1342 -0.8613
 1688SOL    HW1 5203   2.138   2.481   0.568  0.3559  0.2707  0.6325
 1688SOL    HW2 5204   2.262   2.565   0.590  1.1853  0.1813 -2.9695
 1689SOL     OW 5205   2.462   3.492   1.919  0.4704 -0.5225  0.7333
 1689SOL    HW1 5206   2.390   3.551   1.939  0.8645 -0.1020  0.9121
 1689SOL    HW2 5207   2.540   3.548   1.914  0.4688 -0.6267 -1.5803
 1690SOL     OW 5208   1.722   0.008   1.444 -0.0073  0.0881  0.2293
 1690SOL    HW1 5209   1.759   0.079   1.391  0.4483  0.0686  0.5181
 1690SOL    HW2 5210   1.778   0.004   1.522 -1.2150  0.7129  1.1574
 1691SOL     OW 5211   1.899   2.702   1.466 -0.2182  0.2534  0.2317
 1691SOL    HW1 5212   1.878   2.730   1.555  2.1566 -0.9721  1.2782
 1691SOL    HW2 5213   1.892   2.782   1.414  0.3615  1.4858  1.9396
 1692SOL     OW 5214   1.136   0.352   1.552 -0.0185 -0.0253  0.2323
 1692SOL    HW1 5215   1.112   0.389   1.637 -0.3671 -0.2973  0.2584
 1692SOL    HW2 5216   1.206   0.408   1.520 -0.1231  0.2879  0.5432
 1693SOL     OW 5217   1.007   3.419   0.924  0.1036 -0.5527 -0.6845
 1693SOL    HW1 5218   0.962   3.351   0.873 -1.9661 -0.5443  0.9977
 1693SOL    HW2 5219   0.984   3.501   0.881 -0.1894 -0.6804 -0.7771
 1694SOL     OW 5220   3.714   3.177   0.350 -0.0556  0.3905  0.3224
 1694SOL    HW1 5221   3.720   3.151   0.442 -0.2032 -0.6917  0.0450
 1694SOL    HW2 5222   3.654   3.113   0.311 -0.7959  1.4462 -0.3218
 1695SOL     OW 5223   3.172   0.984   2.801  0.2285 -0.5727 -0.4641
 1695SOL    HW1 5224   3.134   0.933   2.872  0.8165 -0.4714 -0.0684
 1695SOL    HW2 5225   3.264   0.995   2.826  0.2225  0.2515 -0.7874
 1696SOL     OW 5226   2.906   3.074   0.766  0.3954  0.1545  0.4581
 1696SOL    HW1 5227   2.950   2.993   0.740  0.4242  0.9462 -2.2660
 1696SOL    HW2 5228   2.819   3.046   0.795 -1.2728 -0.7240 -4.5620
 1697SOL     OW 5229   0.911   1.935   3.486  0.0670 -0.0692  0.0678
 1697SOL    HW1 5230   0.874   1.847   3.493  0.9024 -0.3628  1.0616
 1697SOL    HW2 5231   0.857   1.989   3.544 -0.4884  0.0974 -0.5950
 1698SOL     OW 5232   1.982   2.165   2.030  0.9271  0.5126 -0.6640
 1698SOL    HW1 5233   1.924   2.232   1.992  0.0097 -0.7237 -1.5699
 1698SOL    HW2 5234   1.932   2.083   2.022  2.3646 -0.4323 -0.4286
 1699SOL     OW 5235   1.532   0.677   1.750  0.4893  0.6564  0.5068
 1699SOL    HW1 5236   1.541   0.585   1.774  0.0921  0.6057  0.4681
 1699SOL    HW2 5237   1.453   0.680   1.696  0.5964  0.9930  0.3654
 1700SOL     OW 5238   2.393   1.674   0.782 -0.4026  0.3337  0.5834
 1700SOL    HW1 5239   2.431   1.746   0.731 -2.0243 -0.3683 -1.8111
 1700SOL    HW2 5240   2.314   1.713   0.821 -0.9982  0.0433 -0.2888
 1701SOL     OW 5241   1.542   0.625   2.063  0.2215 -0.1881  0.6689
 1701SOL    HW1 5242   1.559   0.531   2.062 -0.3117 -0.3709  3.1320
 1701SOL    HW2 5243   1.447   0.631   2.074  0.1059  0.6956 -0.5674
 1702SOL     OW 5244   2.750   0.806   2.846 -0.5085 -0.5102  0.1055
 1702SOL    HW1 5245   2.664   0.847   2.847 -0.3337 -0.1427  0.0446
 1702SOL    HW2 5246   2.800   0.857   2.782 -0.4273 -1.0864 -0.3023
 1703SOL     OW 5247   3.059   0.502   2.370  0.2830 -0.3853  0.2370
 1703SOL    HW1 5248   3.147   0.508   2.335  0.6660 -1.7862  0.8871
 1703SOL    HW2 5249   3.065   0.540   2.458  0.3038 -0.6652  0.3602
 1704SOL     OW 5250   2.890   2.599   0.247  0.2714 -0.4591 -0.0685
 1704SOL    HW1 5251   2.900   2.686   0.207  1.4266 -0.1993  0.7256
 1704SOL    HW2 5252   2.812   2.606   0.301  1.2224  0.6131  1.2308
 1705SOL     OW 5253   1.587   2.555   3.353  0.0954  0.3681  0.1404
 1705SOL    HW1 5254   1.560   2.633   3.304 -1.2789  0.2031  0.6113
 1705SOL    HW2 5255   1.668   2.582   3.397  0.6888  0.9079 -1.2028
 1706SOL     OW 5256   2.558   0.608   2.878 -0.3254 -0.0221  0.1209
 1706SOL    HW1 5257   2.525   0.697   2.887  0.1187  0.1418  0.1252
 1706SOL    HW2 5258   2.653   0.617   2.875 -0.2991 -0.4029 -0.8043
 1707SOL     OW 5259   3.623   0.181   0.137  0.2715 -1.0138  0.0613
 1707SOL    HW1 5260   3.539   0.208   0.101  0.7969 -1.0687 -1.2466
 1707SOL    HW2 5261   3.600   0.120   0.208 -0.7838 -2.7468 -1.6696
 1708SOL     OW 5262   3.547   2.756   2.090 -0.8037 -0.0059 -1.0474
 1708SOL    HW1 5263   3.607   2.723   2.024  0.3403 -0.0010 -0.0430
 1708SOL    HW2 5264   3.602   2.805   2.151 -1.4081 -1.8855  1.1403
 1709SOL     OW 5265   3.171   1.956   0.843  0.0626 -0.5449 -0.2834
 1709SOL    HW1 5266   3.119   1.904   0.904 -0.2334  0.4790  0.3696
 1709SOL    HW2 5267   3.186   1.898   0.769  0.6899 -1.9393  0.8685
 1710SOL     OW 5268   1.462   1.237   3.332 -0.8441 -0.4699 -0.3606
 1710SOL    HW1 5269   1.406   1.293   3.279 -1.3781 -2.1951 -1.7122
 1710SOL    HW2 5270   1.407   1.209   3.405 -0.1981  1.6688  1.0264
 1711SOL     OW 5271   0.340   2.142   1.751 -0.1020 -0.6361  0.5981
 1711SOL    HW1 5272   0.271   2.203   1.723 -0.0290 -1.7956 -2.4763
 1711SOL    HW2 5273   0.386   2.189   1.821 -2.9593  0.8267  1.6715
 1712SOL     OW 5274   2.282   2.889   2.852 -0.6903 -0.3054 -0.2767
 1712SOL    HW1 5275   2.251   2.979   2.862 -0.5108 -0.0995 -1.4538
 1712SOL    HW2 5276   2.238   2.857   2.773  2.0748  0.0115 -2.0863
 1713SOL     OW 5277   1.818   3.138   3.045 -0.1537 -0.2873 -0.4049
 1713SOL    HW1 5278   1.807   3.166   3.135  1.8125  2.4179 -0.8876
 1713SOL    HW2 5279   1.752   3.070   3.032 -0.7357 -0.4795  2.9118
 1714SOL     OW 5280   1.732   0.263   1.722 -0.1757 -0.1408  0.2148
 1714SOL    HW1 5281   1.648   0.273   1.677  0.0290 -0.6927 -0.2995
 1714SOL    HW2 5282   1.777   0.347   1.707 -0.6053  0.1329  0.4382
 1715SOL     OW 5283   2.431   0.358   0.309 -0.2340  0.2486 -0.3808
 1715SOL    HW1 5284   2.438   0.398   0.396 -1.2913 -0.9548  0.2931
 1715SOL    HW2 5285   2.522   0.347   0.281  0.4122 -2.5937  2.1872
 1716SOL     OW 5286   1.770   0.895   0.481  0.1097  0.0227  0.1623
 1716SOL    HW1 5287   1.695   0.859   0.528  0.6104 -0.5959  0.5082
 1716SOL    HW2 5288   1.778   0.840   0.402  0.7410 -0.5071  0.5804
 1717SOL     OW 5289   1.479   1.553   2.521 -0.4862 -0.2572 -0.2951
 1717SOL    HW1 5290   1.451   1.579   2.434  0.2711 -0.4678 -0.6145
 1717SOL    HW2 5291   1.448   1.623   2.579  0.9523  1.0636 -1.0397
 1718SOL     OW 5292   1.888   3.370   2.424  0.0081 -0.0216  0.4153
 1718SOL    HW1 5293   1.966   3.375   2.479 -0.5689 -1.2873  1.3850
 1718SOL    HW2 5294   1.838   3.448   2.446  0.1127 -0.1643  1.1961
 1719SOL     OW 5295   0.637   2.976   3.184  0.4326  0.1913  0.0751
 1719SOL    HW1 5296   0.640   2.966   3.279  0.2362  3.3813  0.5212
 1719SOL    HW2 5297   0.545   2.959   3.161  0.3630 -0.0424  0.5139
 1720SOL     OW 5298   3.109   0.631   0.535 -0.2010 -0.1497 -0.0082
 1720SOL    HW1 5299   3.124   0.604   0.625  0.0774  0.7215  0.2152
 1720SOL    HW2 5300   3.061   0.714   0.542 -0.2685 -0.1247 -0.6650
 1721SOL     OW 5301   3.431   2.538   3.574 -0.3046  0.6989  0.4869
 1721SOL    HW1 5302   3.424   2.630   3.598 -2.2572  0.3336  1.4359
 1721SOL    HW2 5303   3.394   2.533   3.486  2.3049  1.1959 -0.7627
 1722SOL     OW 5304   2.527   0.059   2.386 -0.1743 -0.1558 -0.1103
 1722SOL    HW1 5305   2.476  -0.015   2.352 -1.7671  0.0603  1.6662
 1722SOL    HW2 5306   2.581   0.020   2.455 -1.1506  0.3142  0.9547
 1723SOL     OW 5307   1.982   3.471   3.390 -0.4799 -0.1220  0.0285
 1723SOL    HW1 5308   1.941   3.556   3.375 -1.5855 -0.5139  0.7231
 1723SOL    HW2 5309   1.943   3.414   3.324 -1.1838 -0.5275  0.7793
 1724SOL     OW 5310   1.779   1.886   3.021 -0.1953  0.4491  0.0620
 1724SOL    HW1 5311   1.787   1.979   3.001  0.0319  0.2025 -1.0663
 1724SOL    HW2 5312   1.702   1.880   3.078 -1.1766  1.1575 -1.1451
 1725SOL     OW 5313   1.724   3.364   0.324  0.2202 -0.1120  0.5087
 1725SOL    HW1 5314   1.793   3.324   0.378 -1.4077 -2.0644  1.2895
 1725SOL    HW2 5315   1.751   3.345   0.234  0.4158 -1.4681  0.8219
 1726SOL     OW 5316   0.356   0.299   2.019 -0.4733  0.1866 -0.4349
 1726SOL    HW1 5317   0.383   0.331   1.933 -1.6152 -1.7581 -1.5995
 1726SOL    HW2 5318   0.262   0.318   2.023 -0.5246 -0.1809  0.1485
 1727SOL     OW 5319   1.369   3.651   0.019 -0.1202 -0.2052 -0.6350
 1727SOL    HW1 5320   1.344   3.609   0.101 -1.4992 -4.0688 -2.7956
 1727SOL    HW2 5321   1.456   3.616  -0.001  0.5583  1.3228 -0.5441
 1728SOL     OW 5322   2.331   1.011   0.918 -0.8577  0.2569 -0.2009
 1728SOL    HW1 5323   2.380   0.928   0.921 -0.1852  0.6271 -0.6691
 1728SOL    HW2 5324   2.272   1.006   0.992 -0.4476 -0.4153  0.0973
 1729SOL     OW 5325   0.751   0.617  -0.015 -0.1022  0.5529 -0.2353
 1729SOL    HW1 5326   0.748   0.586   0.075 -2.4597 -2.0730 -1.0483
 1729SOL    HW2 5327   0.684   0.684  -0.021  1.6630  2.4885  0.3951
 1730SOL     OW 5328   3.686   2.528   0.267 -0.3903  0.4471 -0.6230
 1730SOL    HW1 5329   3.619   2.505   0.203 -1.8621  2.7301 -0.0689
 1730SOL    HW2 5330   3.753   2.573   0.216 -0.0005 -0.5261 -0.9795
 1731SOL     OW 5331   3.636   1.269   2.754 -0.3062  0.0625 -0.3030
 1731SOL    HW1 5332   3.673   1.355   2.732  0.0028  0.0188  0.0487
 1731SOL    HW2 5333   3.706   1.207   2.734 -0.8072 -0.1875 -1.3228
 1732SOL     OW 5334   2.572   3.526   3.153 -0.4041  0.2815  0.5066
 1732SOL    HW1 5335   2.562   3.576   3.234 -1.3457  0.3698  0.3422
 1732SOL    HW2 5336   2.493   3.546   3.103 -0.3788 -0.6924  0.0681
 1733SOL     OW 5337   1.595   2.966   1.898 -0.5298  0.2683 -0.2457
 1733SOL    HW1 5338   1.542   2.890   1.923  0.5232 -0.4680 -0.1746
 1733SOL    HW2 5339   1.588   3.026   1.971 -1.4627  0.2949 -0.3466
 1734SOL     OW 5340   0.024   3.061   3.079 -0.0268 -0.0325 -0.2977
 1734SOL    HW1 5341   0.097   3.115   3.050 -0.0026  0.1010  0.0050
 1734SOL    HW2 5342  -0.032   3.052   3.002 -0.3270  0.9081 -0.1963
 1735SOL     OW 5343   0.485   1.367   2.436 -0.0188  0.0256  0.3918
 1735SOL    HW1 5344   0.442   1.418   2.368  1.7205  0.6664 -0.2732
 1735SOL    HW2 5345   0.548   1.428   2.475  0.4901 -0.9571  1.1460
 1736SOL     OW 5346   0.670   2.196   0.929 -0.4633  0.2258  0.2489
 1736SOL    HW1 5347   0.723   2.186   0.849 -0.6773  2.1579 -0.1952
 1736SOL    HW2 5348   0.645   2.289   0.929 -1.6729 -0.0618  1.8249
 1737SOL     OW 5349   3.345   3.028   1.838  0.5838  0.0901  0.1236
 1737SOL    HW1 5350   3.353   3.122   1.819 -1.7464  0.7392  1.8086
 1737SOL    HW2 5351   3.365   3.021   1.932 -0.0657 -0.9479  0.2026
 1738SOL     OW 5352   0.293   3.658   0.427  0.1462  0.6973  0.1634
 1738SOL    HW1 5353   0.232   3.732   0.438  2.6416  2.8165  0.7162
 1738SOL    HW2 5354   0.236   3.582   0.414 -2.6313  2.2808  1.9581
 1739SOL     OW 5355   1.101   2.256   3.642 -0.0329 -0.1055  0.0064
 1739SOL    HW1 5356   1.119   2.168   3.677  3.1387  1.0320  1.6495
 1739SOL    HW2 5357   1.008   2.269   3.657  0.2649 -1.4061  4.3650
 1740SOL     OW 5358   2.989   0.115   0.948 -0.6729  0.6117  0.0355
 1740SOL    HW1 5359   2.976   0.131   1.042 -1.7834  0.5299 -0.0871
 1740SOL    HW2 5360   3.080   0.139   0.932  1.0455 -3.4905  2.0131
 1741SOL     OW 5361   0.512   1.166   2.124 -0.3455  0.1744  0.2752
 1741SOL    HW1 5362   0.489   1.114   2.201 -1.4635 -1.7989 -1.3110
 1741SOL    HW2 5363   0.451   1.240   2.127 -0.3278  0.1626  1.3070
 1742SOL     OW 5364   0.208   2.874   1.939  0.0568  0.4640  0.3490
 1742SOL    HW1 5365   0.245   2.787   1.951 -0.3878  0.2261  0.0035
 1742SOL    HW2 5366   0.142   2.863   1.872 -0.3471  0.9727  0.6568
 1743SOL     OW 5367   1.500   1.718   0.328  0.0599 -0.0588 -0.1228
 1743SOL    HW1 5368   1.406   1.715   0.341 -0.2005  2.3930 -0.9408
 1743SOL    HW2 5369   1.529   1.628   0.339 -2.2160 -0.6932  1.1859
 1744SOL     OW 5370   0.787   0.430   1.490  0.4877  0.2326 -0.0325
 1744SOL    HW1 5371   0.863   0.416   1.434  0.9670  0.0198  0.6627
 1744SOL    HW2 5372   0.716   0.383   1.446  0.6633  0.7288 -0.8697
 1745SOL     OW 5373   2.403   2.152   3.739 -0.2794 -0.1704  0.1110
 1745SOL    HW1 5374   2.359   2.235   3.758 -2.2854 -0.9812 -0.6872
 1745SOL    HW2 5375   2.341   2.105   3.684  1.3696 -1.6863 -0.5236
 1746SOL     OW 5376   1.670   1.050   3.051 -0.2249  0.1627 -0.0345
 1746SOL    HW1 5377   1.714   0.996   3.116 -0.5386  1.1475  1.0240
 1746SOL    HW2 5378   1.730   1.051   2.976  0.6962 -0.0234  0.6842
 1747SOL     OW 5379   2.790   0.161   2.156  0.1775  0.2055 -0.0186
 1747SOL    HW1 5380   2.799   0.127   2.246  1.1287  1.7003  0.4883
 1747SOL    HW2 5381   2.720   0.108   2.118  0.6502 -1.3675  1.1591
 1748SOL     OW 5382   2.448   0.937   1.201  0.4494  0.6965 -0.4042
 1748SOL    HW1 5383   2.519   0.991   1.237  0.0942 -0.3827  2.1738
 1748SOL    HW2 5384   2.431   0.872   1.269  0.0331 -1.9490 -2.8540
 1749SOL     OW 5385   3.388   0.281   1.308 -0.1088  0.4040 -0.3292
 1749SOL    HW1 5386   3.365   0.192   1.333  2.6710 -0.0371  1.1445
 1749SOL    HW2 5387   3.395   0.279   1.212  1.1984 -1.3787 -0.2481
 1750SOL     OW 5388   1.049   3.519   1.645  0.0395 -0.1486 -0.0885
 1750SOL    HW1 5389   1.069   3.495   1.735 -0.4855  1.3452  0.4427
 1750SOL    HW2 5390   0.972   3.575   1.651 -0.4614 -0.6243 -1.5390
 1751SOL     OW 5391   0.840   2.353   3.532  0.3246 -0.2532  0.2514
 1751SOL    HW1 5392   0.762   2.347   3.477  0.0173  0.3010  0.6259
 1751SOL    HW2 5393   0.890   2.426   3.494  2.5294 -2.8643 -2.3407
 1752SOL     OW 5394   1.868   2.086   0.662 -0.0095 -0.1629  0.2367
 1752SOL    HW1 5395   1.953   2.086   0.707 -0.1019 -0.6965  0.4135
 1752SOL    HW2 5396   1.830   2.171   0.683 -0.6681 -0.9147  2.3374
 1753SOL     OW 5397   1.852   2.918   3.260 -0.1751 -0.4034  0.1214
 1753SOL    HW1 5398   1.878   2.838   3.306  1.1576  0.7094  1.3949
 1753SOL    HW2 5399   1.933   2.950   3.221 -1.0253 -0.5789 -1.9417
 1754SOL     OW 5400   1.325   3.004   0.634  0.2294 -0.1851 -0.5329
 1754SOL    HW1 5401   1.276   2.981   0.712 -0.5439 -1.1940 -1.2903
 1754SOL    HW2 5402   1.337   3.099   0.640  0.2995 -0.2657  0.8531
 1755SOL     OW 5403   2.707   1.332   3.672  0.2209 -0.0997  0.4310
 1755SOL    HW1 5404   2.614   1.329   3.651  0.3241 -1.4591  0.0745
 1755SOL    HW2 5405   2.747   1.376   3.597 -0.0651  0.0307  0.3521
 1756SOL     OW 5406   0.063   3.325   1.652  0.4392 -0.2110 -1.0400
 1756SOL    HW1 5407   0.124   3.296   1.720  0.3665  1.3885 -0.2348
 1756SOL    HW2 5408   0.116   3.330   1.572  0.6949 -1.4228 -0.9666
 1757SOL     OW 5409   3.312   2.546   2.055  0.6016  0.0206 -0.1458
 1757SOL    HW1 5410   3.386   2.604   2.071 -0.4306  1.2779  0.2116
 1757SOL    HW2 5411   3.283   2.520   2.142 -0.3564  0.8314 -0.2071
 1758SOL     OW 5412   3.326   2.642   1.800  0.4736  0.2714  0.2564
 1758SOL    HW1 5413   3.364   2.614   1.883  0.6131  1.8385  0.7707
 1758SOL    HW2 5414   3.255   2.702   1.826  0.9457  1.2973 -0.7430
 1759SOL     OW 5415   0.596   3.233   2.094  0.2044 -0.2384 -0.0941
 1759SOL    HW1 5416   0.507   3.199   2.095 -0.4131  1.0524  3.5275
 1759SOL    HW2 5417   0.589   3.321   2.057 -0.8351  1.2840  3.3519
 1760SOL     OW 5418   3.556   3.723   3.481  0.4471  0.0601  0.4132
 1760SOL    HW1 5419   3.580   3.660   3.413  0.1040 -0.1983  0.5341
 1760SOL    HW2 5420   3.526   3.670   3.554 -1.6458  0.3814 -0.1516
 1761SOL     OW 5421   1.902   1.829   3.744  0.3532 -0.1759  0.2181
 1761SOL    HW1 5422   1.978   1.886   3.753 -0.1274  0.4025  0.6584
 1761SOL    HW2 5423   1.918   1.780   3.663  1.1582 -0.0157  0.2749
 1762SOL     OW 5424   3.176   1.848   2.080  0.7514  0.1976 -0.1812
 1762SOL    HW1 5425   3.247   1.787   2.059  1.1928  0.6670 -0.0640
 1762SOL    HW2 5426   3.163   1.899   2.000 -0.2233 -0.6401 -0.5721
 1763SOL     OW 5427   2.180   3.407   2.962  0.2247 -0.0502  0.1398
 1763SOL    HW1 5428   2.085   3.408   2.949 -0.0112 -1.3593  1.4733
 1763SOL    HW2 5429   2.209   3.328   2.917  0.6462  0.2125 -0.0478
 1764SOL     OW 5430   2.247   1.448   1.331 -0.4858  0.0785  0.3146
 1764SOL    HW1 5431   2.237   1.363   1.375 -3.0357 -1.7269 -3.2517
 1764SOL    HW2 5432   2.178   1.503   1.367 -1.3153 -0.7186 -0.0326
 1765NA      NA 5433   1.710   1.979   0.795 -0.0856  0.3987  0.2295
   3.73090   3.73090   3.73090
