Protein in water
 5435
    0TYR      N    1   1.079   2.798   0.174  0.1047 -0.7610  0.3763
    0TYR     H1    2   1.132   2.810   0.263  0.3287 -1.8041  0.3998
    0TYR     H2    3   1.031   2.888   0.152 -1.7156 -0.9239  3.1784
    0TYR     H3    4   1.142   2.786   0.092 -1.8811  1.1934 -1.5710
    0TYR     CA    5   0.983   2.688   0.198  0.1719 -0.4827  0.2347
    0TYR     HA    6   1.055   2.610   0.216  0.8931  0.2772  0.7022
    0TYR     CB    7   0.899   2.731   0.326  0.6015  0.3747 -0.0397
    0TYR    HB1    8   0.818   2.804   0.304 -0.2495 -0.4338  0.3531
    0TYR    HB2    9   0.966   2.774   0.403  0.2763  0.9354 -0.0696
    0TYR     CG   10   0.829   2.625   0.405  0.2416  0.3305  0.0403
    0TYR    CD1   11   0.913   2.524   0.467  0.0998  0.1246 -0.0166
    0TYR    HD1   12   1.013   2.529   0.428 -0.0409  1.1140 -0.2840
    0TYR    CE1   13   0.858   2.414   0.529  0.0796 -0.5801  0.0812
    0TYR    HE1   14   0.927   2.342   0.571  0.1372  0.6232  2.1706
    0TYR     CZ   15   0.723   2.423   0.569  0.6055  0.1744  0.0408
    0TYR     OH   16   0.668   2.320   0.645  0.0494 -0.3330  0.3499
    0TYR     HH   17   0.575   2.342   0.655 -0.7929 -2.8471 -0.9066
    0TYR    CD2   18   0.691   2.616   0.428 -0.2568  1.7602 -0.3290
    0TYR    HD2   19   0.617   2.684   0.391 -1.2855  1.0560  0.3948
    0TYR    CE2   20   0.636   2.516   0.511 -0.1976  0.1160 -1.4106
    0TYR    HE2   21   0.531   2.510   0.537 -0.1767  0.8913 -1.1358
    0TYR      C   22   0.880   2.651   0.095 -1.1822 -0.2793 -0.1664
    0TYR      O   23   0.840   2.734   0.013 -0.1755  1.1899 -0.6012
    1TYR      N   24   0.843   2.515   0.097  0.7114 -0.3292  0.0002
    1TYR     HN   25   0.864   2.456   0.175  0.3110  1.9041  1.9126
    1TYR     CA   26   0.737   2.468   0.009 -0.0777 -0.2635  0.1058
    1TYR     HA   27   0.673   2.550  -0.018  1.8128  0.2913 -3.2731
    1TYR     CB   28   0.797   2.417  -0.125 -0.1337  0.0501 -0.1058
    1TYR    HB1   29   0.890   2.361  -0.107  0.9201  1.8780  0.3885
    1TYR    HB2   30   0.832   2.512  -0.171  0.2248 -0.1971 -0.3406
    1TYR     CG   31   0.711   2.337  -0.213 -0.4237 -0.4316 -0.4656
    1TYR    CD1   32   0.749   2.203  -0.247  0.1754 -0.8558  0.2393
    1TYR    HD1   33   0.834   2.146  -0.212 -1.5432 -3.3062  0.6727
    1TYR    CE1   34   0.671   2.140  -0.346 -0.6163 -0.2564  0.8832
    1TYR    HE1   35   0.686   2.035  -0.367 -3.5848 -0.4889 -0.5264
    1TYR     CZ   36   0.550   2.190  -0.390 -0.8913  0.0380 -0.2878
    1TYR     OH   37   0.480   2.100  -0.476 -0.4956 -0.5523 -0.4099
    1TYR     HH   38   0.541   2.030  -0.501  2.4498  1.5852  0.2527
    1TYR    CD2   39   0.595   2.397  -0.273 -0.3912  0.7768 -0.0288
    1TYR    HD2   40   0.562   2.497  -0.251 -0.0521  1.1771 -1.2504
    1TYR    CE2   41   0.512   2.320  -0.360 -0.3021  0.1314  0.3870
    1TYR    HE2   42   0.418   2.361  -0.393 -1.0388 -1.3082  0.6004
    1TYR      C   43   0.651   2.371   0.086 -0.5561  0.2748 -0.2331
    1TYR      O   44   0.699   2.292   0.167 -0.1179  0.1598  0.8865
    2ASP      N   45   0.520   2.391   0.066 -0.0846  0.5899 -0.6808
    2ASP     HN   46   0.486   2.472   0.018  0.8042  1.6917  0.4840
    2ASP     CA   47   0.412   2.313   0.130 -0.4397 -0.2926  0.4473
    2ASP     HA   48   0.460   2.236   0.189 -2.1712 -2.5640 -0.9175
    2ASP     CB   49   0.308   2.395   0.221  0.8561  0.4323 -0.6934
    2ASP    HB1   50   0.255   2.475   0.166  1.4417  0.5532 -1.0872
    2ASP    HB2   51   0.376   2.445   0.293  0.5026  0.8405 -0.6405
    2ASP     CG   52   0.209   2.301   0.303 -0.1093 -0.6439  0.2033
    2ASP    OD1   53   0.118   2.359   0.366 -0.9068  0.1539 -0.0574
    2ASP    OD2   54   0.227   2.177   0.293 -0.1838  0.0384 -0.5148
    2ASP      C   55   0.335   2.243   0.012  0.0648 -0.4718 -0.1499
    2ASP      O   56   0.245   2.300  -0.043  0.0877 -0.2745  0.9805
    3PRO      N   57   0.382   2.126  -0.029 -0.1194  0.5053 -0.1329
    3PRO     CD   58   0.481   2.042   0.038  0.1648  0.4272  0.1055
    3PRO    HD1   59   0.577   2.098   0.045 -0.1393  0.8321  1.5225
    3PRO    HD2   60   0.432   2.026   0.137 -0.1948 -1.9918 -0.4162
    3PRO     CA   61   0.334   2.057  -0.149 -0.5753  0.8039  0.4323
    3PRO     HA   62   0.393   2.108  -0.224  1.4685 -2.8188 -0.6637
    3PRO     CB   63   0.381   1.908  -0.128 -0.2440  0.1885  1.4372
    3PRO    HB1   64   0.386   1.867  -0.232  1.3627  0.0852  1.5215
    3PRO    HB2   65   0.301   1.858  -0.069 -2.2200  0.9222 -0.4831
    3PRO     CG   66   0.508   1.917  -0.056 -0.2953 -0.2052 -0.8578
    3PRO    HG1   67   0.599   1.934  -0.117 -0.1363  0.8427 -0.3443
    3PRO    HG2   68   0.516   1.827   0.008 -3.0439  1.5039  2.2339
    3PRO      C   69   0.186   2.063  -0.194 -0.4092 -0.0949  0.1137
    3PRO      O   70   0.089   2.061  -0.117 -0.1843 -0.4680  0.1801
    4GLU      N   71   0.167   2.066  -0.330  0.3882 -0.2393 -0.0391
    4GLU     HN   72   0.235   2.051  -0.401 -1.7919 -0.3105 -2.2224
    4GLU     CA   73   0.048   2.093  -0.396  0.0981  0.0269 -0.0719
    4GLU     HA   74   0.004   2.164  -0.327 -0.2644  1.6765 -1.8932
    4GLU     CB   75   0.066   2.168  -0.539  0.6677  0.1858  0.1751
    4GLU    HB1   76  -0.031   2.192  -0.588 -0.7126  1.1799  3.1874
    4GLU    HB2   77   0.132   2.100  -0.597  1.0647  0.3005  0.4866
    4GLU     CG   78   0.153   2.293  -0.519  0.6518 -0.2088  0.8084
    4GLU    HG1   79   0.262   2.274  -0.517  0.6048 -0.7999 -0.9010
    4GLU    HG2   80   0.112   2.337  -0.425  1.3340 -0.6396  1.3158
    4GLU     CD   81   0.125   2.382  -0.646 -0.1675 -0.6587  0.4454
    4GLU    OE1   82   0.013   2.424  -0.671  0.1367  1.0711  0.2861
    4GLU    OE2   83   0.229   2.407  -0.715  0.5370 -0.1754 -0.2260
    4GLU      C   84  -0.037   1.967  -0.400  0.8296  0.5452  0.6118
    4GLU      O   85  -0.147   1.960  -0.346  0.3591  0.1951 -0.1850
    5THR      N   86   0.011   1.859  -0.459 -0.1361  0.6295 -0.1782
    5THR     HN   87   0.101   1.871  -0.502  0.8637 -2.0714  0.9473
    5THR     CA   88  -0.040   1.720  -0.460  0.2456 -0.1440  0.0556
    5THR     HA   89  -0.142   1.725  -0.496 -0.8125 -4.9284  1.7151
    5THR     CB   90   0.035   1.635  -0.555  0.2725  0.2284 -0.3572
    5THR     HB   91   0.140   1.630  -0.518 -0.1537 -1.2132  0.7423
    5THR    OG1   92   0.021   1.687  -0.684  0.0036  0.1420  0.0652
    5THR    HG1   93   0.104   1.680  -0.732 -0.3449 -2.3947 -0.2792
    5THR    CG2   94  -0.033   1.492  -0.561 -0.4383 -0.6313  0.0773
    5THR   HG21   95   0.006   1.440  -0.651  0.4061  0.5264 -0.2548
    5THR   HG22   96  -0.142   1.513  -0.552  0.1217  2.7203  0.4272
    5THR   HG23   97  -0.008   1.428  -0.474 -0.1558 -1.6883 -0.7775
    5THR      C   98  -0.039   1.654  -0.325 -0.4342 -0.4510  0.2643
    5THR      O   99   0.067   1.618  -0.275  0.1281 -0.3329 -0.0333
    6GLY      N  100  -0.153   1.646  -0.250 -1.1710 -0.7886 -0.3822
    6GLY     HN  101  -0.239   1.689  -0.275 -1.5624 -1.0281  0.4878
    6GLY     CA  102  -0.158   1.566  -0.127 -0.0646  0.3441 -0.7934
    6GLY    HA1  103  -0.216   1.617  -0.052  0.8848 -0.6266  0.6497
    6GLY    HA2  104  -0.065   1.551  -0.075 -0.4757  1.2425  0.2425
    6GLY      C  105  -0.222   1.440  -0.148  0.6972  0.5803 -0.2344
    6GLY      O  106  -0.168   1.360  -0.226  0.2425 -0.0559 -0.8166
    7THR      N  107  -0.344   1.423  -0.087 -0.0305 -0.0370 -0.2912
    7THR     HN  108  -0.385   1.497  -0.035 -1.2916 -0.7005 -0.2810
    7THR     CA  109  -0.410   1.292  -0.096 -0.4380 -0.0185 -0.9014
    7THR     HA  110  -0.345   1.206  -0.085 -1.6354 -0.6748  1.9297
    7THR     CB  111  -0.505   1.278   0.023  0.2586  0.4086 -0.5580
    7THR     HB  112  -0.469   1.321   0.119 -2.7886 -0.8350  1.2668
    7THR    OG1  113  -0.541   1.145   0.041  0.1889  0.1507 -0.2360
    7THR    HG1  114  -0.589   1.145   0.125 -0.8379 -2.1263 -0.7510
    7THR    CG2  115  -0.640   1.350  -0.008  0.3084 -0.2160 -0.2598
    7THR   HG21  116  -0.703   1.297  -0.083 -1.2642 -0.3507  1.0756
    7THR   HG22  117  -0.625   1.446  -0.061  0.7884  1.4541  2.6429
    7THR   HG23  118  -0.696   1.365   0.088 -0.8524 -2.1252 -0.5865
    7THR      C  119  -0.483   1.271  -0.224  0.6281 -0.2363  0.1532
    7THR      O  120  -0.525   1.358  -0.302 -0.2313 -0.3197 -0.2454
    8TRP      N  121  -0.505   1.143  -0.258 -0.2390 -0.0434  0.3880
    8TRP     HN  122  -0.459   1.067  -0.212  0.4238 -1.4016 -2.2612
    8TRP     CA  123  -0.612   1.091  -0.344 -0.2276  0.4524  0.0424
    8TRP     HA  124  -0.627   1.165  -0.421 -1.4615 -0.4222 -0.5901
    8TRP     CB  125  -0.576   0.962  -0.422  0.4380  0.0996  0.9556
    8TRP    HB1  126  -0.656   0.952  -0.499  1.4161 -1.0141  0.0529
    8TRP    HB2  127  -0.571   0.873  -0.356  0.5333  0.3039  1.2247
    8TRP     CG  128  -0.440   0.973  -0.492 -0.9937 -0.0898  0.2532
    8TRP    CD1  129  -0.358   1.078  -0.522  0.3218 -0.6058 -0.8444
    8TRP    HD1  130  -0.382   1.181  -0.503  0.2064 -0.4056 -2.0122
    8TRP    NE1  131  -0.249   1.046  -0.595  0.8031  0.5744 -0.3463
    8TRP    HE1  132  -0.167   1.090  -0.621  2.2727 -1.5119  0.4855
    8TRP    CE2  133  -0.259   0.907  -0.616  0.0746  0.2281 -0.8410
    8TRP    CD2  134  -0.383   0.862  -0.563 -0.3659  0.0004  0.1712
    8TRP    CE3  135  -0.420   0.729  -0.577 -0.1001 -0.5588  1.1378
    8TRP    HE3  136  -0.508   0.695  -0.524 -1.9601  0.9679 -0.7938
    8TRP    CZ3  137  -0.328   0.635  -0.632 -0.0134 -0.2671  0.0620
    8TRP    HZ3  138  -0.341   0.528  -0.630 -0.1011 -0.2530  1.6953
    8TRP    CZ2  139  -0.170   0.822  -0.670 -0.2617 -0.6317 -0.1949
    8TRP    HZ2  140  -0.075   0.860  -0.704 -1.2879 -1.3399 -4.4862
    8TRP    CH2  141  -0.206   0.683  -0.688 -0.0169  0.3738 -0.2423
    8TRP    HH2  142  -0.131   0.615  -0.727  1.0044  2.0354 -1.2902
    8TRP      C  143  -0.748   1.082  -0.273  0.0885  0.2282 -0.4588
    8TRP      O  144  -0.755   1.045  -0.155 -0.2023  0.0721 -0.2093
    9GLN      N  145  -0.861   1.116  -0.338 -0.2161 -0.6543  0.1319
    9GLN     HN  146  -0.860   1.140  -0.435  1.4948 -1.2163 -0.0218
    9GLN     CA  147  -0.991   1.114  -0.271  0.0946  0.2345 -0.1169
    9GLN     HA  148  -0.989   1.101  -0.164  1.9573 -0.7562 -0.2357
    9GLN     CB  149  -1.057   1.251  -0.289 -0.2413 -0.3625  0.6713
    9GLN    HB1  150  -1.166   1.255  -0.266 -0.3642  1.2443 -0.0748
    9GLN    HB2  151  -1.065   1.262  -0.400  0.5873  0.2154  0.6642
    9GLN     CG  152  -0.979   1.362  -0.219 -0.2712  0.4114 -0.2902
    9GLN    HG1  153  -0.991   1.375  -0.109 -1.0724 -2.6559  0.0714
    9GLN    HG2  154  -0.873   1.355  -0.250 -0.9317 -0.7219 -2.5122
    9GLN     CD  155  -1.043   1.493  -0.267  0.0199 -0.7678 -0.2712
    9GLN    OE1  156  -1.093   1.573  -0.183 -0.0090 -0.0949  0.2689
    9GLN    NE2  157  -1.030   1.526  -0.399 -0.3700 -0.3264  0.3288
    9GLN   HE21  158  -1.064   1.615  -0.429  1.2278  0.1902 -0.0067
    9GLN   HE22  159  -0.991   1.460  -0.463 -1.2029  0.4327 -1.0191
    9GLN      C  160  -1.080   1.002  -0.325  0.8550 -0.7311 -0.5809
    9GLN    OT1  161  -1.128   0.907  -0.255  0.2887  1.0860 -0.1496
    9GLN    OT2  162  -1.120   1.017  -0.445  0.1273  0.2171  0.4079
   10SOL     OW  163   3.541   0.339   0.072 -0.5469 -0.4711  0.1150
   10SOL    HW1  164   3.512   0.429   0.078  2.0185  0.3718  1.2872
   10SOL    HW2  165   3.474   0.288   0.118 -2.0536  0.7971 -0.6281
   11SOL     OW  166   3.204   2.384   2.230 -0.4375  0.5556  0.0717
   11SOL    HW1  167   3.284   2.367   2.181 -0.0461  0.1584  0.8259
   11SOL    HW2  168   3.133   2.372   2.167  0.1203  1.6567 -0.7950
   12SOL     OW  169   2.731   3.477   0.702  0.1736 -0.3143  0.3289
   12SOL    HW1  170   2.649   3.505   0.662  1.0036 -1.4162 -2.3257
   12SOL    HW2  171   2.765   3.556   0.744 -1.4918  0.5303  0.1866
   13SOL     OW  172   0.129   0.305   3.603  0.2339 -0.0516  0.2937
   13SOL    HW1  173   0.207   0.358   3.585  0.2658  0.2833  1.3109
   13SOL    HW2  174   0.057   0.352   3.561  0.1071  1.3752  1.9678
   14SOL     OW  175   0.751   0.287   0.079  0.9866 -0.1266  0.0445
   14SOL    HW1  176   0.836   0.326   0.060  0.9561  0.0747  0.3051
   14SOL    HW2  177   0.724   0.328   0.162 -0.9225  2.3651 -1.6644
   15SOL     OW  178   3.285   0.534   2.749  0.4094 -0.3852 -0.5776
   15SOL    HW1  179   3.308   0.503   2.662  2.4448  2.7934 -1.3687
   15SOL    HW2  180   3.364   0.579   2.780 -1.4915  2.0959  1.1367
   16SOL     OW  181   0.329   0.283   2.171 -0.0179 -0.3404 -0.3129
   16SOL    HW1  182   0.364   0.275   2.083 -1.8229  3.6623 -1.6262
   16SOL    HW2  183   0.402   0.315   2.224  0.3877 -0.0748 -1.0208
   17SOL     OW  184   0.639   1.707   1.830 -0.0278  0.1743 -1.0043
   17SOL    HW1  185   0.734   1.713   1.817  0.2054 -0.6104  0.2036
   17SOL    HW2  186   0.627   1.623   1.874 -1.4305 -0.3767 -2.3595
   18SOL     OW  187   2.880   1.188   1.634  0.1410  0.5580 -0.1064
   18SOL    HW1  188   2.842   1.274   1.614 -0.2381  0.3016 -0.5074
   18SOL    HW2  189   2.945   1.175   1.564  2.2733  1.7515  1.4929
   19SOL     OW  190   3.501   1.583   2.839 -0.5992  0.1409  0.0359
   19SOL    HW1  191   3.488   1.628   2.923 -0.0694  2.6198 -1.1191
   19SOL    HW2  192   3.419   1.536   2.825  0.0597 -2.1108  2.8735
   20SOL     OW  193   3.058   0.841   1.358  0.0135  0.5305 -0.7047
   20SOL    HW1  194   3.098   0.847   1.272 -0.5073  1.2796 -0.9015
   20SOL    HW2  195   3.025   0.929   1.376  0.2192  0.4237  0.3125
   21SOL     OW  196   1.790   1.767   2.359  0.7948  0.1717  0.1459
   21SOL    HW1  197   1.764   1.691   2.411 -1.0422  0.0039 -0.9350
   21SOL    HW2  198   1.864   1.736   2.307  0.5403 -0.6582  0.2614
   22SOL     OW  199   2.368   0.213   0.698 -0.4404  0.4160 -0.1136
   22SOL    HW1  200   2.419   0.140   0.733 -0.7204  1.5936  3.0805
   22SOL    HW2  201   2.383   0.210   0.603  2.0704 -1.8188  0.2437
   23SOL     OW  202   2.121   1.614   2.405  0.2460  0.8349 -0.2038
   23SOL    HW1  203   2.103   1.620   2.499  0.0355  0.1554 -0.1920
   23SOL    HW2  204   2.200   1.561   2.400  0.7946  1.6531 -0.3759
   24SOL     OW  205   2.444   1.219   3.089  0.6707  0.3613 -0.2070
   24SOL    HW1  206   2.493   1.152   3.137  2.9333  1.0642 -1.3647
   24SOL    HW2  207   2.369   1.173   3.052  0.9158 -1.0002  0.9104
   25SOL     OW  208   1.417   1.475   2.254  0.4565  0.1790  0.0789
   25SOL    HW1  209   1.333   1.520   2.259 -0.0536 -0.8541  1.0828
   25SOL    HW2  210   1.400   1.386   2.285  1.7010 -0.3679 -0.7004
   26SOL     OW  211   3.012   2.240   1.697  0.0187 -0.2873  0.2031
   26SOL    HW1  212   2.949   2.273   1.633 -1.4199 -2.3471  0.4318
   26SOL    HW2  213   3.013   2.305   1.767  1.1438  1.6914 -1.5582
   27SOL     OW  214   0.509   2.146   2.004 -0.4739 -0.3504 -0.5909
   27SOL    HW1  215   0.594   2.101   2.013 -0.8776 -0.9848  0.1981
   27SOL    HW2  216   0.531   2.238   1.998  0.2512 -0.4531  0.2731
   28SOL     OW  217   1.899   1.244   2.979  0.3882  0.6459  0.0773
   28SOL    HW1  218   1.878   1.242   2.886  1.2942  0.8818 -0.1491
   28SOL    HW2  219   1.837   1.307   3.016  1.4602  2.2835 -0.7812
   29SOL     OW  220   2.570   0.507   0.222  0.4448  0.4902  0.1630
   29SOL    HW1  221   2.479   0.534   0.236  0.2602  0.1372 -0.3512
   29SOL    HW2  222   2.565   0.412   0.212  0.6609  0.6206 -1.4675
   30SOL     OW  223   3.046   1.999   3.194 -0.5074 -0.3849  0.0098
   30SOL    HW1  224   3.030   2.025   3.104 -1.7500  0.6692  0.4909
   30SOL    HW2  225   3.105   2.066   3.228  0.3833 -1.0737 -0.1547
   31SOL     OW  226   2.723   2.369   1.185 -0.4603 -0.1337 -0.6878
   31SOL    HW1  227   2.684   2.354   1.099 -1.9473 -0.5476  0.0323
   31SOL    HW2  228   2.651   2.400   1.239  0.3208 -0.4556  0.5753
   32SOL     OW  229   2.797   0.230   1.152 -0.6135 -0.0800  0.3232
   32SOL    HW1  230   2.779   0.243   1.059  0.2035 -0.2426  0.1309
   32SOL    HW2  231   2.800   0.135   1.162  2.2389 -0.1269 -0.1290
   33SOL     OW  232   2.060   0.627   3.172 -0.8739 -0.0765  0.0213
   33SOL    HW1  233   2.078   0.535   3.192  0.8153  0.5659  1.8284
   33SOL    HW2  234   2.072   0.673   3.255 -0.4499  1.9338 -1.0640
   34SOL     OW  235   1.467   2.171   1.943  0.5098  0.1114 -0.3447
   34SOL    HW1  236   1.556   2.172   1.910  0.5080 -1.1033 -0.4353
   34SOL    HW2  237   1.455   2.082   1.977 -0.7849  0.1410 -0.6681
   35SOL     OW  238   0.616   1.058   2.047  0.3069 -0.0123 -0.0475
   35SOL    HW1  239   0.604   1.107   2.128 -1.5595  0.2881 -0.4611
   35SOL    HW2  240   0.691   1.100   2.004 -1.4264  2.7862 -0.5447
   36SOL     OW  241   3.098   1.409   2.111  0.2587 -0.5275  0.1049
   36SOL    HW1  242   3.019   1.462   2.111  0.6361  0.0858  1.3663
   36SOL    HW2  243   3.074   1.328   2.066 -0.8739 -0.0743 -0.1243
   37SOL     OW  244   1.066   2.755   1.541 -0.4957 -0.1564 -0.0246
   37SOL    HW1  245   1.100   2.676   1.499 -0.1287 -0.5049  0.8965
   37SOL    HW2  246   1.094   2.747   1.632 -0.4744  1.0365  0.0831
   38SOL     OW  247   0.038   1.483   2.790  0.3134  0.1692  0.4405
   38SOL    HW1  248   0.070   1.512   2.875  0.1851  2.9025 -0.3438
   38SOL    HW2  249  -0.055   1.503   2.791  0.5324  1.5093 -0.7268
   39SOL     OW  250   0.031   2.847   3.550 -0.1269 -0.5395  0.1219
   39SOL    HW1  251   0.020   2.895   3.632  1.0146  1.8962 -1.0198
   39SOL    HW2  252  -0.046   2.870   3.498 -0.2543 -1.0766  0.0749
   40SOL     OW  253   0.566   3.007   2.841  0.3453 -0.4550  0.0549
   40SOL    HW1  254   0.586   3.084   2.893 -0.4583  1.1647 -1.9225
   40SOL    HW2  255   0.484   2.973   2.879 -0.1358  0.5911 -0.0239
   41SOL     OW  256   0.335   1.630   0.184 -0.5192 -0.2976  0.1385
   41SOL    HW1  257   0.250   1.659   0.154 -1.4678 -1.5569  1.4538
   41SOL    HW2  258   0.317   1.551   0.235  1.2435  0.2623  1.7682
   42SOL     OW  259   0.462   1.735   0.520 -0.3420 -0.1401  0.0452
   42SOL    HW1  260   0.387   1.748   0.578  0.3224  1.6162  0.5912
   42SOL    HW2  261   0.456   1.806   0.456  1.1656  0.4336  0.4774
   43SOL     OW  262   2.885   0.443   0.947  0.0631  0.4263 -0.1990
   43SOL    HW1  263   2.934   0.462   1.026 -1.1360  0.0264  0.6733
   43SOL    HW2  264   2.856   0.528   0.915  1.5843  0.6933 -0.9192
   44SOL     OW  265   3.641   2.318   1.070  0.2125 -0.4787  1.0968
   44SOL    HW1  266   3.657   2.253   1.138 -0.9332 -0.7229  1.1447
   44SOL    HW2  267   3.597   2.270   1.000 -2.2340  0.5495  1.8472
   45SOL     OW  268   3.101   0.881   1.710  0.0333 -0.0495  0.1094
   45SOL    HW1  269   3.031   0.868   1.645 -0.5189  2.7576  0.0179
   45SOL    HW2  270   3.058   0.929   1.781  1.7665  1.4491  0.2014
   46SOL     OW  271   1.554   1.803   2.894 -0.0499 -0.0887 -0.0457
   46SOL    HW1  272   1.527   1.713   2.912 -0.4093  0.0079 -0.1012
   46SOL    HW2  273   1.544   1.848   2.978 -1.6996  0.3558 -0.4552
   47SOL     OW  274   2.903   3.368   1.546  0.0813 -0.3960 -0.9476
   47SOL    HW1  275   2.946   3.388   1.462  0.5841 -0.0209 -0.6036
   47SOL    HW2  276   2.899   3.452   1.591  0.3695 -0.7066 -0.3333
   48SOL     OW  277   2.109   0.141   2.062 -0.9420  0.7292 -0.7808
   48SOL    HW1  278   2.202   0.138   2.085 -1.7191  1.7936  3.3520
   48SOL    HW2  279   2.084   0.050   2.049  0.1921  0.2016  0.5634
   49SOL     OW  280   2.201   2.041   1.124  0.0626  0.3516  0.0344
   49SOL    HW1  281   2.231   1.969   1.179 -0.0648  1.1399  1.1680
   49SOL    HW2  282   2.279   2.071   1.078  0.5852  0.9175  1.2496
   50SOL     OW  283   2.725   0.718   2.832  0.4226 -0.5830 -0.4270
   50SOL    HW1  284   2.700   0.794   2.780 -0.9269  1.5261  2.9680
   50SOL    HW2  285   2.821   0.720   2.832  0.4197  1.3383 -0.1944
   51SOL     OW  286   2.489   2.422   2.012  0.0796  0.4287  0.1974
   51SOL    HW1  287   2.429   2.483   2.054  0.9733  1.1504  0.4393
   51SOL    HW2  288   2.553   2.477   1.967  0.9531 -0.3223  0.4835
   52SOL     OW  289   1.626   0.056   0.850 -0.7793  0.0580  0.3963
   52SOL    HW1  290   1.662   0.034   0.935 -1.6482  0.5346  0.9057
   52SOL    HW2  291   1.610   0.150   0.854 -0.6886  0.1140 -0.3490
   53SOL     OW  292   3.431   0.989   2.431  0.0339 -0.1385 -0.0298
   53SOL    HW1  293   3.419   1.027   2.344  0.2952  1.2539  0.5155
   53SOL    HW2  294   3.526   0.989   2.444  0.1317 -1.9046 -0.3750
   54SOL     OW  295   2.702   2.731   0.826  0.1081  0.3425 -0.1074
   54SOL    HW1  296   2.780   2.718   0.880 -1.4389  2.0063  2.7448
   54SOL    HW2  297   2.703   2.825   0.805 -1.9609  0.7878  1.5053
   55SOL     OW  298   1.773   0.479   3.207 -0.0073 -0.2737  0.4428
   55SOL    HW1  299   1.797   0.412   3.144 -2.1554  0.2169 -0.9670
   55SOL    HW2  300   1.747   0.430   3.285  0.6516 -0.9614  0.2470
   56SOL     OW  301   0.252   0.963   3.699  0.7242 -0.0640  0.1284
   56SOL    HW1  302   0.333   1.004   3.669  0.9355  0.7681  1.7501
   56SOL    HW2  303   0.183   1.010   3.652  1.0844  0.7195  0.3628
   57SOL     OW  304   1.548   1.114   0.835  0.4985  0.0394  0.0956
   57SOL    HW1  305   1.518   1.167   0.909 -1.7958 -0.4392 -0.4283
   57SOL    HW2  306   1.635   1.083   0.862 -0.2073 -0.0101  2.5360
   58SOL     OW  307   3.272   3.707   2.588  0.1118 -0.2997  0.5140
   58SOL    HW1  308   3.245   3.662   2.507 -2.1603 -0.0328  1.0632
   58SOL    HW2  309   3.304   3.636   2.644 -0.5638 -0.8245  0.2555
   59SOL     OW  310   0.184   3.600   1.289 -0.4415 -0.6506  0.1236
   59SOL    HW1  311   0.104   3.575   1.242 -0.7870  0.2169  0.2447
   59SOL    HW2  312   0.190   3.695   1.278 -2.4343  0.2589  4.6672
   60SOL     OW  313   1.113   1.488   3.299  0.2755 -0.5120 -0.4618
   60SOL    HW1  314   1.085   1.501   3.208 -0.5727  3.5715  0.1763
   60SOL    HW2  315   1.193   1.539   3.307  0.3278 -0.7915  1.0677
   61SOL     OW  316   0.122   0.620   3.365 -0.5445 -0.2952  0.0306
   61SOL    HW1  317   0.099   0.711   3.385 -0.8011 -0.8532  2.5795
   61SOL    HW2  318   0.102   0.572   3.445  1.8674 -2.2126 -0.3993
   62SOL     OW  319   0.151   3.599   3.666 -0.0121 -0.0892  0.0856
   62SOL    HW1  320   0.082   3.657   3.697  1.3632  1.1922  0.9267
   62SOL    HW2  321   0.144   3.602   3.571 -0.5931  0.6873  0.1397
   63SOL     OW  322   1.218   0.889   1.946  0.0756 -0.1389 -0.5715
   63SOL    HW1  323   1.185   0.800   1.935  1.2161 -0.4641 -1.5594
   63SOL    HW2  324   1.303   0.879   1.989  0.2337  0.4667 -0.7313
   64SOL     OW  325   0.509   0.643   3.117 -0.4315 -0.2056 -0.0563
   64SOL    HW1  326   0.484   0.642   3.024  0.5303  2.5262 -0.4230
   64SOL    HW2  327   0.447   0.704   3.158 -1.4248 -2.0539  1.3610
   65SOL     OW  328   0.822  -0.008   0.976 -0.1646  0.1891 -0.5808
   65SOL    HW1  329   0.771  -0.064   0.918 -0.4273 -0.2570  0.0678
   65SOL    HW2  330   0.835   0.073   0.927  0.5295 -0.5612 -1.6712
   66SOL     OW  331   0.485   2.245   2.363  0.2312 -0.2990  0.0951
   66SOL    HW1  332   0.467   2.222   2.454  1.6476 -0.7563  0.2753
   66SOL    HW2  333   0.465   2.166   2.313  0.8136 -0.4982  0.1780
   67SOL     OW  334   3.323   0.115   1.221  0.1403  0.8127  0.7434
   67SOL    HW1  335   3.345   0.082   1.309 -1.0231  1.2722  1.2350
   67SOL    HW2  336   3.390   0.180   1.202  1.2719 -0.3456  0.6392
   68SOL     OW  337   2.436   1.381   0.056 -0.0683 -0.2128  0.2144
   68SOL    HW1  338   2.397   1.294   0.066 -0.9675  0.1285 -0.1802
   68SOL    HW2  339   2.527   1.370   0.083 -0.2587 -1.1978  0.4959
   69SOL     OW  340   1.309   0.140   0.972  0.1752 -0.5117 -0.4219
   69SOL    HW1  341   1.391   0.177   0.941  0.4002 -1.4497 -1.0001
   69SOL    HW2  342   1.334   0.064   1.023 -0.3339 -0.9599 -0.8199
   70SOL     OW  343   0.025   3.108   1.584  0.2017  0.1265  0.5323
   70SOL    HW1  344   0.010   3.091   1.678 -1.1727 -0.4774  0.2392
   70SOL    HW2  345  -0.020   3.190   1.567  0.3540  0.1785  0.3853
   71SOL     OW  346   3.343   2.576   2.985 -0.2342 -0.8466 -0.3655
   71SOL    HW1  347   3.259   2.582   3.031  0.8208 -0.8413  1.6894
   71SOL    HW2  348   3.403   2.539   3.049  1.5748  0.0317 -1.4567
   72SOL     OW  349   3.362   0.849   1.624 -0.0912  0.1994 -0.2827
   72SOL    HW1  350   3.273   0.846   1.660 -0.2021  0.5376 -0.5350
   72SOL    HW2  351   3.414   0.893   1.692 -0.4131  1.3458 -0.7729
   73SOL     OW  352   3.488   2.576   1.860 -0.3909 -0.5206  0.2415
   73SOL    HW1  353   3.503   2.664   1.895  1.7990 -1.4894  1.9898
   73SOL    HW2  354   3.571   2.530   1.874 -1.0351 -2.5151 -1.8199
   74SOL     OW  355   1.243   0.317   2.851 -0.2321  0.2977 -0.0170
   74SOL    HW1  356   1.253   0.250   2.919 -0.1402  0.7050  0.3755
   74SOL    HW2  357   1.161   0.294   2.807  0.5567 -0.9584 -0.8887
   75SOL     OW  358   0.398   3.336   2.171 -0.0159  0.7584  0.7946
   75SOL    HW1  359   0.468   3.396   2.145 -0.2765  1.9690  2.6542
   75SOL    HW2  360   0.436   3.285   2.242 -0.9901  1.4397  1.8347
   76SOL     OW  361   2.553   0.689   3.206 -0.4546  0.5390  0.0658
   76SOL    HW1  362   2.534   0.761   3.145  0.2432 -0.4983 -1.4278
   76SOL    HW2  363   2.614   0.727   3.269 -0.8808  1.5358 -0.0950
   77SOL     OW  364   1.001   0.445   1.502  0.2974  0.1989 -0.4551
   77SOL    HW1  365   1.004   0.471   1.410 -0.9689  0.4572 -0.4487
   77SOL    HW2  366   1.000   0.528   1.551  0.0922  0.0845 -0.2583
   78SOL     OW  367   1.715   1.860   0.896  0.1080 -0.0300  0.2272
   78SOL    HW1  368   1.772   1.907   0.835  0.6103 -0.4346  0.3719
   78SOL    HW2  369   1.636   1.841   0.845  0.0712  0.6019  0.0463
   79SOL     OW  370   0.905   3.256   3.585  0.0495  0.0838 -0.1355
   79SOL    HW1  371   0.841   3.326   3.578 -0.9533 -0.9151 -1.3940
   79SOL    HW2  372   0.902   3.211   3.501  0.5372 -1.5703  0.6714
   80SOL     OW  373   2.686   0.496   0.539 -0.5253 -0.1285  0.2117
   80SOL    HW1  374   2.666   0.499   0.445  1.5504  2.8568 -0.2782
   80SOL    HW2  375   2.764   0.441   0.545  0.5512  1.2881 -0.1769
   81SOL     OW  376   0.892   1.166   2.511  0.1520 -0.1818 -0.2150
   81SOL    HW1  377   0.952   1.114   2.457  0.9823 -1.2535  1.6505
   81SOL    HW2  378   0.895   1.254   2.472  3.1627 -0.1094 -0.0957
   82SOL     OW  379   2.688   2.956   1.837  0.0647 -0.4786 -0.1004
   82SOL    HW1  380   2.763   2.925   1.888 -0.2653 -0.3232  0.4837
   82SOL    HW2  381   2.721   3.034   1.791 -0.0220  0.2083  0.9686
   83SOL     OW  382   1.873   0.304   0.555  0.4234  0.1913  0.3626
   83SOL    HW1  383   1.853   0.212   0.572 -0.4658  0.4165  0.6038
   83SOL    HW2  384   1.959   0.318   0.594  0.5874 -0.5477  0.2749
   84SOL     OW  385   0.435   0.830   0.979  0.3772 -0.3413 -0.7788
   84SOL    HW1  386   0.505   0.797   1.034 -1.0783 -2.0469  0.1360
   84SOL    HW2  387   0.465   0.917   0.952  1.8254 -0.0768  1.4272
   85SOL     OW  388   0.930   1.157   1.208 -0.0541 -0.3902  0.1478
   85SOL    HW1  389   0.905   1.215   1.135 -1.2434  0.8420  1.4712
   85SOL    HW2  390   0.953   1.217   1.279  2.8858 -1.5232  0.3147
   86SOL     OW  391   1.580   0.094   1.978  0.2920  0.3159  0.0884
   86SOL    HW1  392   1.672   0.087   1.954  0.3289  0.5645  0.1578
   86SOL    HW2  393   1.576   0.059   2.067  0.4952  1.2443  0.4744
   87SOL     OW  394   0.121   3.150   0.388 -0.2471  0.1962 -0.0406
   87SOL    HW1  395   0.042   3.183   0.430 -1.2514 -0.1693 -1.5609
   87SOL    HW2  396   0.184   3.221   0.395 -0.0431 -0.1840  2.8423
   88SOL     OW  397   3.272   1.558   2.347  0.4958  0.3556 -0.1263
   88SOL    HW1  398   3.222   1.622   2.297 -0.8117 -2.6133 -2.9497
   88SOL    HW2  399   3.207   1.514   2.402  0.6836 -0.7586 -0.7526
   89SOL     OW  400   3.474   3.372   0.068 -0.5493  0.2506  0.2843
   89SOL    HW1  401   3.481   3.374  -0.027  0.2727 -0.0464  0.3327
   89SOL    HW2  402   3.562   3.389   0.099 -1.0184  1.5032  1.0201
   90SOL     OW  403   1.456   0.565   1.816  0.2897 -0.4827 -0.1940
   90SOL    HW1  404   1.375   0.519   1.796  0.5761 -1.1611  0.1848
   90SOL    HW2  405   1.435   0.658   1.802 -0.9564 -0.5213  1.2424
   91SOL     OW  406   1.076   1.933   2.839  0.6706 -0.4160  0.4274
   91SOL    HW1  407   1.056   1.964   2.927  1.7409 -2.1111  1.3078
   91SOL    HW2  408   1.169   1.950   2.827  0.4569  0.1816 -0.5769
   92SOL     OW  409   0.448   3.140   1.300 -0.2661 -0.0083  1.1219
   92SOL    HW1  410   0.424   3.157   1.391  0.4619  0.9707  1.1473
   92SOL    HW2  411   0.426   3.221   1.254 -0.5620 -0.4692  0.4373
   93SOL     OW  412   2.977   1.935   1.993 -0.0507  0.5211 -0.6731
   93SOL    HW1  413   3.010   2.014   2.036  0.9184 -0.6828  0.9198
   93SOL    HW2  414   2.945   1.965   1.908  0.7941  2.5222 -0.3351
   94SOL     OW  415   0.889   2.917   3.549 -0.4594 -0.5256  0.1379
   94SOL    HW1  416   0.829   2.989   3.569  2.1733  1.4734  1.3571
   94SOL    HW2  417   0.868   2.850   3.614 -2.3758 -0.5703 -0.4666
   95SOL     OW  418   3.479   1.557   0.665  0.2756  0.2440 -0.2898
   95SOL    HW1  419   3.481   1.462   0.653  0.8812  0.5028 -2.6892
   95SOL    HW2  420   3.558   1.577   0.714 -0.4726 -0.5650  1.3357
   96SOL     OW  421   3.000   1.191   1.895 -0.2190 -0.0400 -0.4099
   96SOL    HW1  422   2.942   1.210   1.821  0.7019  0.3723 -1.0418
   96SOL    HW2  423   2.944   1.144   1.958 -1.2418  0.3828 -0.9781
   97SOL     OW  424   0.030   2.894   0.412 -0.3311 -0.3978 -0.4078
   97SOL    HW1  425  -0.023   2.942   0.476  0.1955 -1.2195  0.6680
   97SOL    HW2  426   0.106   2.950   0.398  0.7777 -1.2978  1.6035
   98SOL     OW  427   3.321   0.250   1.504  0.0691 -0.0767  0.6948
   98SOL    HW1  428   3.386   0.315   1.477  0.0228 -0.7210 -1.1096
   98SOL    HW2  429   3.257   0.250   1.433  0.4298 -2.5582  0.2803
   99SOL     OW  430   3.606   1.884   3.641  0.2130  0.7313  0.9369
   99SOL    HW1  431   3.669   1.954   3.624 -0.0633  0.7301 -0.1419
   99SOL    HW2  432   3.575   1.857   3.554 -1.4683  0.9067  1.4463
  100SOL     OW  433   2.543   3.131   1.436  0.0718 -0.0825 -0.5128
  100SOL    HW1  434   2.574   3.222   1.436 -0.1215 -0.0166 -0.6803
  100SOL    HW2  435   2.582   3.091   1.359  0.6700 -0.3201 -0.0935
  101SOL     OW  436   1.485   3.218   1.798  0.3918  0.4066  0.0429
  101SOL    HW1  437   1.429   3.174   1.734  1.3012 -1.3914  0.4217
  101SOL    HW2  438   1.528   3.147   1.845 -0.1128  1.6792  2.5770
  102SOL     OW  439   2.122   1.824   2.187 -0.6650  0.5166 -0.5885
  102SOL    HW1  440   2.137   1.741   2.231  1.8086  1.1002 -0.1651
  102SOL    HW2  441   2.155   1.890   2.248  2.3640  1.4034 -2.8996
  103SOL     OW  442   1.566   2.595   1.546 -0.3214  0.3839  0.6859
  103SOL    HW1  443   1.548   2.511   1.503  0.4127  0.2258  0.6690
  103SOL    HW2  444   1.584   2.572   1.637  0.1538  0.4908  0.6205
  104SOL     OW  445   2.303   0.844   1.662 -0.9894 -0.2044  0.4579
  104SOL    HW1  446   2.215   0.828   1.630 -1.5415  0.7611  1.4091
  104SOL    HW2  447   2.310   0.791   1.742  0.1249 -2.0531 -0.7956
  105SOL     OW  448   0.623   0.092   0.470 -0.3661  0.3383 -0.1848
  105SOL    HW1  449   0.634   0.162   0.405 -0.6397  0.8684  0.3343
  105SOL    HW2  450   0.627   0.011   0.418 -1.6016  0.7823 -1.0249
  106SOL     OW  451   2.858   3.655   0.868  0.1423  0.2334 -0.4678
  106SOL    HW1  452   2.932   3.715   0.877  2.0930 -1.7135 -2.2683
  106SOL    HW2  453   2.815   3.657   0.954  1.3601  2.5458  0.1748
  107SOL     OW  454   1.770   2.339   1.168  0.0412  0.0585  0.4874
  107SOL    HW1  455   1.817   2.284   1.232 -0.0770 -0.6792 -0.0432
  107SOL    HW2  456   1.728   2.406   1.221  1.5582  0.6539  1.0000
  108SOL     OW  457   3.453   2.463   0.601 -0.3041  0.1541 -0.6944
  108SOL    HW1  458   3.445   2.558   0.592 -1.6088  0.1876  0.5030
  108SOL    HW2  459   3.390   2.440   0.669 -1.9929 -1.8894 -2.7513
  109SOL     OW  460   2.422   1.115   0.623  0.5999  0.2186  0.0825
  109SOL    HW1  461   2.359   1.125   0.551 -0.1047  0.3349  0.7098
  109SOL    HW2  462   2.470   1.035   0.601 -1.4035 -1.2735  0.7979
  110SOL     OW  463   3.015   0.306   2.936 -0.0388 -1.1558 -0.0668
  110SOL    HW1  464   2.952   0.378   2.942 -2.9940 -3.5918  0.1558
  110SOL    HW2  465   3.046   0.309   2.845 -0.7161 -0.1136 -0.2795
  111SOL     OW  466   2.714   0.450   3.228  0.0637  0.5525  0.0040
  111SOL    HW1  467   2.658   0.528   3.231 -0.5275  0.1889 -0.9226
  111SOL    HW2  468   2.652   0.378   3.219  0.6428  0.0335  0.1755
  112SOL     OW  469   2.206   3.419   2.671 -0.5366  0.5984  0.2162
  112SOL    HW1  470   2.280   3.463   2.628  0.4120 -0.7528  0.4341
  112SOL    HW2  471   2.130   3.474   2.649  0.1596  0.8071 -1.8749
  113SOL     OW  472   1.222   1.035   3.144 -0.1247 -0.0107  0.5278
  113SOL    HW1  473   1.227   0.939   3.145 -1.8533 -0.1226  1.0184
  113SOL    HW2  474   1.237   1.059   3.053 -0.9715 -0.8541  0.1464
  114SOL     OW  475   2.768   1.401   2.367  0.0435 -0.6023  0.0172
  114SOL    HW1  476   2.725   1.395   2.452  1.6241 -0.9928  0.8241
  114SOL    HW2  477   2.794   1.493   2.359  0.3495 -0.6729  0.1928
  115SOL     OW  478   2.050   1.605   0.621 -0.1667  0.3684 -0.4878
  115SOL    HW1  479   2.106   1.678   0.646 -0.9160  0.4575  1.0398
  115SOL    HW2  480   2.038   1.555   0.701  0.5472 -1.6221 -1.5467
  116SOL     OW  481   2.562   2.645   2.864  0.1196 -0.2956  0.2495
  116SOL    HW1  482   2.571   2.733   2.901  0.6730 -0.5561  0.7469
  116SOL    HW2  483   2.550   2.660   2.770 -0.3723  0.3299  0.4081
  117SOL     OW  484   0.032   2.652   0.283 -0.0869 -0.3280 -0.2346
  117SOL    HW1  485   0.046   2.724   0.345 -0.9359 -0.2180 -0.1644
  117SOL    HW2  486   0.088   2.582   0.316  1.8370  0.7238 -1.0738
  118SOL     OW  487   1.681   0.230   3.333 -0.6347 -0.0917 -0.5591
  118SOL    HW1  488   1.765   0.215   3.290 -0.3340  0.4941 -0.1878
  118SOL    HW2  489   1.648   0.143   3.352 -0.0721 -0.3285 -0.6416
  119SOL     OW  490   1.989   3.458   0.199 -0.6117 -0.3254  1.0633
  119SOL    HW1  491   1.938   3.378   0.189 -1.5638  0.2470  1.2005
  119SOL    HW2  492   1.942   3.509   0.265 -2.8736  2.4981 -2.3572
  120SOL     OW  493   0.703   2.420   2.035  0.0680  0.2517  0.5363
  120SOL    HW1  494   0.774   2.483   2.053  0.7772 -0.9666  2.2925
  120SOL    HW2  495   0.643   2.431   2.109 -0.1200 -0.6879  0.5241
  121SOL     OW  496   0.713   2.721   2.211 -0.2686 -0.1759  0.3632
  121SOL    HW1  497   0.778   2.783   2.177 -0.7826 -0.0870 -0.4993
  121SOL    HW2  498   0.764   2.644   2.235  0.2323  0.1264  0.3043
  122SOL     OW  499   0.984   3.392   2.745 -0.4381  0.0932 -0.0038
  122SOL    HW1  500   0.963   3.308   2.784  0.0944  0.2801  0.6977
  122SOL    HW2  501   0.900   3.439   2.742 -0.5728 -0.1209  0.4286
  123SOL     OW  502   0.225   0.918   0.274  0.0333  0.1463 -0.3867
  123SOL    HW1  503   0.198   1.009   0.290 -0.8078 -0.0065 -0.8676
  123SOL    HW2  504   0.241   0.914   0.180 -0.1829 -0.2689 -0.4075
  124SOL     OW  505   1.797   0.355   2.779  0.2980 -0.3062 -0.6609
  124SOL    HW1  506   1.873   0.412   2.775  0.4371 -0.5288 -1.2792
  124SOL    HW2  507   1.735   0.392   2.716 -0.4626  0.3761  0.4651
  125SOL     OW  508   0.972   3.092   2.295  0.1082  0.1379  0.1422
  125SOL    HW1  509   1.017   3.061   2.374 -0.3757  0.0863  0.3983
  125SOL    HW2  510   0.939   3.178   2.318  1.0483  0.6696 -0.4200
  126SOL     OW  511   0.290   1.432   0.387  0.3024 -0.1583  0.0364
  126SOL    HW1  512   0.232   1.367   0.348  0.2407 -0.4146  0.5560
  126SOL    HW2  513   0.365   1.381   0.419  0.0871 -0.0179  0.7659
  127SOL     OW  514   2.649   0.794   1.777  0.2130 -0.4288  0.0071
  127SOL    HW1  515   2.557   0.779   1.799  0.3286 -2.3563 -0.6049
  127SOL    HW2  516   2.662   0.888   1.787 -2.0181 -0.0057 -0.6613
  128SOL     OW  517   1.106   2.250   2.784  0.3696 -0.0904 -0.1159
  128SOL    HW1  518   1.022   2.276   2.822 -0.1184 -0.5242 -0.8681
  128SOL    HW2  519   1.172   2.288   2.843 -0.3283  1.1796 -0.1142
  129SOL     OW  520   1.200   1.248   1.215  0.0075 -0.1092 -0.2756
  129SOL    HW1  521   1.217   1.342   1.212  1.2022 -0.3251 -0.6874
  129SOL    HW2  522   1.195   1.221   1.123 -1.6955 -0.2321 -0.1712
  130SOL     OW  523   0.631   0.255   2.942  0.2045 -0.3333  0.1408
  130SOL    HW1  524   0.617   0.201   3.020  0.6777  1.5569  1.6040
  130SOL    HW2  525   0.723   0.281   2.947 -0.5379  2.5565  0.8899
  131SOL     OW  526   1.564   3.261   3.676 -0.0785  0.1088 -0.1579
  131SOL    HW1  527   1.573   3.248   3.582 -1.9942 -0.5072 -0.3070
  131SOL    HW2  528   1.516   3.343   3.685 -3.3182 -1.6295  0.0231
  132SOL     OW  529   0.435   0.345   3.210 -0.3367  0.6871 -0.8237
  132SOL    HW1  530   0.519   0.318   3.246  0.1503  0.7885 -1.8776
  132SOL    HW2  531   0.451   0.431   3.172 -0.4305 -0.1160 -2.7511
  133SOL     OW  532   0.089   3.682   2.907  0.2693 -0.0897  0.1803
  133SOL    HW1  533   0.076   3.769   2.868  0.0951 -1.7234 -3.9627
  133SOL    HW2  534   0.172   3.652   2.869  0.0346 -1.9340  1.0439
  134SOL     OW  535   3.339   0.262   3.495 -0.2548  0.6690 -0.5941
  134SOL    HW1  536   3.353   0.355   3.512 -1.8145  1.2393 -2.1210
  134SOL    HW2  537   3.336   0.255   3.400  3.8380 -1.6543 -0.7815
  135SOL     OW  538   2.622   1.362   0.611  0.0772 -0.1653 -0.3641
  135SOL    HW1  539   2.666   1.291   0.565 -0.2298 -2.3635  2.4202
  135SOL    HW2  540   2.531   1.357   0.583  0.1506 -0.5926 -0.5205
  136SOL     OW  541   2.975   2.605   2.833 -0.3981  0.2338  0.0492
  136SOL    HW1  542   2.916   2.570   2.898  1.0612  0.6777  1.6949
  136SOL    HW2  543   2.959   2.553   2.754 -2.7943  0.2397  0.4728
  137SOL     OW  544   2.250   3.631   0.102  0.1113  0.5478 -0.1362
  137SOL    HW1  545   2.174   3.587   0.141  0.4467 -0.4725 -0.5871
  137SOL    HW2  546   2.225   3.644   0.010  0.2100  0.8381 -0.1202
  138SOL     OW  547   0.462   2.851   2.218  0.0939  0.6641  0.1084
  138SOL    HW1  548   0.554   2.824   2.223  1.0109  3.0855 -1.5251
  138SOL    HW2  549   0.429   2.808   2.138  0.8670  2.3531 -1.1867
  139SOL     OW  550   0.049   2.485   1.294  0.4535 -0.7725  0.6169
  139SOL    HW1  551   0.114   2.457   1.230  0.6294  1.3889 -0.2443
  139SOL    HW2  552  -0.008   2.409   1.305  1.3751 -1.7428 -0.8572
  140SOL     OW  553   1.675   2.241   1.669 -0.5523  0.1571 -0.2896
  140SOL    HW1  554   1.760   2.213   1.705 -0.6096  0.4775  0.0864
  140SOL    HW2  555   1.687   2.234   1.574 -0.1373  0.1021 -0.2358
  141SOL     OW  556   0.137   2.843   1.866  0.4956  0.2434 -1.1906
  141SOL    HW1  557   0.153   2.750   1.885 -2.2042 -0.0327  0.2888
  141SOL    HW2  558   0.171   2.856   1.778  1.2538 -2.0666 -1.3001
  142SOL     OW  559   0.853   1.672   2.910 -0.5456  0.1016  0.3592
  142SOL    HW1  560   0.808   1.757   2.906  0.9175  0.8526 -1.4112
  142SOL    HW2  561   0.792   1.611   2.868 -0.1228  1.0494 -1.7637
  143SOL     OW  562   3.588   2.855   1.689  0.2173  0.4291  0.1509
  143SOL    HW1  563   3.663   2.826   1.637 -1.1785 -0.8866 -1.2506
  143SOL    HW2  564   3.610   2.831   1.779  2.0324  1.3463 -0.0098
  144SOL     OW  565   2.947   1.004   0.633  0.7616 -0.4225 -0.0962
  144SOL    HW1  566   3.033   1.000   0.592  0.6903  2.5486 -0.7889
  144SOL    HW2  567   2.910   0.917   0.621  3.6419 -1.7835  0.2486
  145SOL     OW  568   0.411   3.495   0.679  0.3646 -0.4608  0.4123
  145SOL    HW1  569   0.361   3.453   0.610 -1.6468  0.6250  1.1452
  145SOL    HW2  570   0.432   3.582   0.644 -1.8533  0.6212  1.5958
  146SOL     OW  571   3.207   2.781   2.799  0.0780  0.3387  0.0084
  146SOL    HW1  572   3.233   2.695   2.831 -1.6691 -0.2001  0.0999
  146SOL    HW2  573   3.124   2.766   2.755  1.1783  1.4938 -2.6548
  147SOL     OW  574   2.442   3.512   2.214 -0.0218  0.0516  0.3819
  147SOL    HW1  575   2.487   3.502   2.298  1.1092 -1.4954 -0.3560
  147SOL    HW2  576   2.508   3.490   2.149 -0.5589  2.3342 -1.0079
  148SOL     OW  577   0.437   3.386   1.177  0.2777  0.4742 -0.3194
  148SOL    HW1  578   0.464   3.450   1.244 -1.6722  1.3548 -0.3027
  148SOL    HW2  579   0.418   3.439   1.100  1.7795 -0.4602 -1.3786
  149SOL     OW  580   1.730   1.266   2.059  0.1406  0.2260  0.2623
  149SOL    HW1  581   1.800   1.280   1.995  0.1883  0.0306  0.2720
  149SOL    HW2  582   1.664   1.332   2.038  0.4767  0.6280  0.4581
  150SOL     OW  583   3.389   2.517   2.527  0.1930 -0.1156 -0.0462
  150SOL    HW1  584   3.469   2.569   2.541  0.8092 -0.2806 -2.4692
  150SOL    HW2  585   3.421   2.433   2.493 -0.8647 -1.7488  2.5906
  151SOL     OW  586   3.112   0.288   2.671  0.8211 -0.1619 -0.2037
  151SOL    HW1  587   3.136   0.198   2.650  0.6490 -0.7232  1.7844
  151SOL    HW2  588   3.164   0.341   2.611  2.9974 -1.5180  0.3506
  152SOL     OW  589   2.872   2.529   2.266  0.2986 -0.1936  0.0310
  152SOL    HW1  590   2.882   2.444   2.307 -0.9821 -0.6424 -0.5346
  152SOL    HW2  591   2.784   2.558   2.292  0.2710  0.4288 -0.7233
  153SOL     OW  592   3.305   1.803   2.638  0.2233 -0.0399 -0.1240
  153SOL    HW1  593   3.344   1.743   2.702  2.1392  1.5232  0.2608
  153SOL    HW2  594   3.353   1.885   2.650 -1.2424  1.1072 -1.7131
  154SOL     OW  595   2.414   2.358   0.444  0.4812  0.1857 -0.3827
  154SOL    HW1  596   2.449   2.447   0.446  0.0660  0.4142  2.7028
  154SOL    HW2  597   2.322   2.368   0.466 -0.1060 -0.8889 -2.1722
  155SOL     OW  598   0.994   2.668   1.069  0.7546 -0.2172  0.4039
  155SOL    HW1  599   1.036   2.603   1.126 -0.3058 -0.1388  1.3091
  155SOL    HW2  600   0.959   2.617   0.996  0.2376 -0.6359  0.9286
  156SOL     OW  601   2.683   1.331   0.191 -0.2625 -0.2721  0.3107
  156SOL    HW1  602   2.635   1.281   0.258 -0.5280 -1.6391 -0.8399
  156SOL    HW2  603   2.759   1.276   0.171 -0.8390 -0.5283 -1.3632
  157SOL     OW  604   3.623   0.857   0.627  0.3904 -0.2203 -0.3526
  157SOL    HW1  605   3.640   0.766   0.652  3.7326 -0.0640 -1.6194
  157SOL    HW2  606   3.574   0.851   0.545 -0.3720 -0.8147  0.1260
  158SOL     OW  607   3.321   0.580   2.265  0.2849  0.3947  0.0155
  158SOL    HW1  608   3.257   0.516   2.236  1.7599 -0.8088 -0.7296
  158SOL    HW2  609   3.351   0.622   2.184  1.6687 -0.2968  0.1418
  159SOL     OW  610   0.665   0.995   2.482 -0.6559  0.0215  0.4546
  159SOL    HW1  611   0.705   1.080   2.466 -0.3896 -0.0522  0.7145
  159SOL    HW2  612   0.739   0.934   2.484 -0.6997 -0.0288  1.5533
  160SOL     OW  613   0.865   0.411   1.777  0.0313 -0.3895 -0.0752
  160SOL    HW1  614   0.906   0.363   1.706  0.9293 -1.4406  1.0984
  160SOL    HW2  615   0.787   0.451   1.738  0.2981 -1.2463 -1.5386
  161SOL     OW  616   2.541   0.001   3.688 -0.1239 -0.4812 -0.0466
  161SOL    HW1  617   2.535   0.070   3.622 -2.2564 -0.4197  0.1520
  161SOL    HW2  618   2.453  -0.036   3.692  0.3880 -1.6153  1.5768
  162SOL     OW  619   1.839   2.274   1.905  0.0403  0.0348 -0.1975
  162SOL    HW1  620   1.818   2.345   1.966 -0.4170 -2.0202  2.1873
  162SOL    HW2  621   1.933   2.280   1.893  0.0952  0.6769  0.4521
  163SOL     OW  622   2.230   0.058   3.353 -0.3147 -0.1839  0.0922
  163SOL    HW1  623   2.158   0.106   3.312  0.9993  1.5370 -0.3047
  163SOL    HW2  624   2.277   0.019   3.279 -0.9038 -1.4617  0.3633
  164SOL     OW  625   3.084   0.347   1.361  0.0716  0.7766  0.5066
  164SOL    HW1  626   3.083   0.427   1.414 -1.0460  0.1105  1.5665
  164SOL    HW2  627   3.144   0.366   1.289 -1.3683  3.1318 -0.1614
  165SOL     OW  628   2.861   2.048   2.612 -0.0175  0.1079  0.5009
  165SOL    HW1  629   2.891   1.978   2.670  1.9510  1.1966  0.8790
  165SOL    HW2  630   2.794   2.093   2.663  0.3869 -0.0688  1.2047
  166SOL     OW  631   3.705   0.879   2.459  0.0303 -0.3478 -0.2176
  166SOL    HW1  632   3.679   0.787   2.456  2.2742 -1.0099 -1.9111
  166SOL    HW2  633   3.737   0.891   2.548 -0.6383 -1.1019  0.1404
  167SOL     OW  634   1.042   1.782   3.075 -0.0749 -0.4742  0.1194
  167SOL    HW1  635   0.984   1.753   3.146  0.8258  0.7637  1.4023
  167SOL    HW2  636   0.999   1.750   2.995 -1.9019 -0.6337  1.1025
  168SOL     OW  637   0.181   0.020   0.806  0.3733 -0.4559 -0.0198
  168SOL    HW1  638   0.124   0.060   0.741  1.4992  2.3898  0.6027
  168SOL    HW2  639   0.269   0.025   0.768  1.0692  1.3804  1.6771
  169SOL     OW  640   0.052   1.839   2.263  0.1420  0.1701  0.2432
  169SOL    HW1  641   0.106   1.802   2.333  1.4336 -2.4412 -1.9597
  169SOL    HW2  642   0.115   1.883   2.206 -0.0630 -2.2144 -1.9443
  170SOL     OW  643   1.654   2.066   0.296 -0.0909 -0.5146  0.2206
  170SOL    HW1  644   1.636   1.973   0.309  2.0189 -0.8176  1.5018
  170SOL    HW2  645   1.680   2.073   0.204  1.5801 -1.5979  0.5570
  171SOL     OW  646   1.160   0.136   0.018  0.3699 -0.4741  0.0297
  171SOL    HW1  647   1.173   0.132   0.112 -1.5762 -0.9150  0.3137
  171SOL    HW2  648   1.122   0.223   0.002 -0.9461 -1.0410 -0.0837
  172SOL     OW  649   0.789   0.413   0.648 -0.2584 -0.3111 -0.1350
  172SOL    HW1  650   0.845   0.481   0.685 -1.9026  1.3867 -0.6149
  172SOL    HW2  651   0.784   0.435   0.555 -2.0448 -0.1396 -0.0290
  173SOL     OW  652   1.790   1.513   1.312 -0.4265 -0.3180  0.4035
  173SOL    HW1  653   1.822   1.467   1.234 -2.6816 -1.8576  0.2931
  173SOL    HW2  654   1.784   1.604   1.285  0.0565 -0.6164 -0.7914
  174SOL     OW  655   1.928   0.696   2.948 -0.0567  0.8807  0.3458
  174SOL    HW1  656   1.954   0.686   3.039 -1.1794  0.3456  0.6257
  174SOL    HW2  657   1.916   0.790   2.936 -1.6192  0.8367  1.2720
  175SOL     OW  658   0.234   2.344   1.111 -0.1342  0.0373  0.2547
  175SOL    HW1  659   0.212   2.346   1.017  1.6483 -0.0726 -0.2119
  175SOL    HW2  660   0.191   2.266   1.144 -2.4631  1.1221  0.0260
  176SOL     OW  661   0.754   0.550   3.188 -0.5694 -0.4249  0.6457
  176SOL    HW1  662   0.723   0.502   3.264 -3.9176  1.0370  0.3837
  176SOL    HW2  663   0.675   0.582   3.145  1.1615 -0.6364 -3.1546
  177SOL     OW  664   2.668   1.860   0.372 -0.0505  0.2412 -0.3983
  177SOL    HW1  665   2.708   1.933   0.418 -2.5727  1.1109  0.6086
  177SOL    HW2  666   2.714   1.783   0.404 -0.8595  0.9332  2.6829
  178SOL     OW  667   0.368   1.017   1.406 -0.0027  0.9010  0.0520
  178SOL    HW1  668   0.342   1.100   1.445  2.2784  1.4835  0.4735
  178SOL    HW2  669   0.444   1.039   1.351  1.3136 -1.0102  0.9814
  179SOL     OW  670   3.054   2.377   1.995 -0.4137  0.4113  0.3546
  179SOL    HW1  671   3.020   2.466   1.991  0.5565  0.7845  0.3231
  179SOL    HW2  672   3.139   2.381   1.951 -1.1719 -0.9148 -1.3685
  180SOL     OW  673   1.342   1.602   3.350 -0.0409  0.2725  0.3573
  180SOL    HW1  674   1.308   1.668   3.410  1.0653  1.0906  0.1103
  180SOL    HW2  675   1.384   1.537   3.406 -1.0353 -0.2042  0.5908
  181SOL     OW  676   2.781   1.422   1.514  0.3540  0.4648 -0.0415
  181SOL    HW1  677   2.768   1.471   1.432  0.9586  0.8661  0.0937
  181SOL    HW2  678   2.818   1.486   1.574  2.7657 -0.5084 -0.3628
  182SOL     OW  679   2.342   2.055   0.888  0.3630 -0.2331 -0.2644
  182SOL    HW1  680   2.321   1.962   0.891  0.1685 -0.1848 -0.1159
  182SOL    HW2  681   2.412   2.061   0.823 -0.2192 -0.3697 -0.9178
  183SOL     OW  682   3.383   3.095   2.075  0.1931 -0.4749  0.0915
  183SOL    HW1  683   3.345   3.168   2.026  0.9351 -0.0391  0.1483
  183SOL    HW2  684   3.388   3.024   2.011 -0.5853 -0.5017  0.0495
  184SOL     OW  685   2.782   0.755   0.612 -0.3935  0.0849  0.1729
  184SOL    HW1  686   2.691   0.785   0.618 -0.9259 -1.2271 -0.9091
  184SOL    HW2  687   2.775   0.661   0.597  1.1054  0.2034 -1.5143
  185SOL     OW  688   3.036   1.604   0.898  0.4024 -0.4007  0.5566
  185SOL    HW1  689   3.075   1.537   0.841  1.3356 -0.1022  0.8199
  185SOL    HW2  690   3.027   1.681   0.842  1.5638 -0.0271  0.8620
  186SOL     OW  691   0.072   1.695   0.101  0.0768  0.0612 -0.1212
  186SOL    HW1  692  -0.019   1.674   0.082  0.1434  0.0203 -0.4010
  186SOL    HW2  693   0.074   1.791   0.105  0.3312  0.1697 -1.7988
  187SOL     OW  694   0.205   0.477   1.430  0.0330 -0.5123  0.4546
  187SOL    HW1  695   0.169   0.496   1.344 -0.6449 -0.7901  0.6681
  187SOL    HW2  696   0.213   0.381   1.432  2.0210 -0.4086 -0.0657
  188SOL     OW  697   2.645   2.714   1.542 -0.2490  0.5354 -0.2302
  188SOL    HW1  698   2.579   2.745   1.604 -1.2353  1.1603 -1.5584
  188SOL    HW2  699   2.690   2.793   1.514  0.3117  0.2341 -0.1947
  189SOL     OW  700   1.637   2.569   2.775 -0.1623 -0.1995 -0.4112
  189SOL    HW1  701   1.643   2.568   2.680 -3.1340 -2.3273 -0.7299
  189SOL    HW2  702   1.554   2.525   2.794  0.1236  0.4995  3.1694
  190SOL     OW  703   3.725   0.183   0.646 -0.3608  0.0817  0.9988
  190SOL    HW1  704   3.707   0.214   0.557  1.1486 -1.2672  0.1881
  190SOL    HW2  705   3.638   0.163   0.682 -0.8876 -1.8887 -1.1465
  191SOL     OW  706   3.696   1.171   2.336 -0.3243 -0.2598  0.0030
  191SOL    HW1  707   3.699   1.076   2.329  0.8663 -0.2652  0.2897
  191SOL    HW2  708   3.726   1.189   2.425  0.8699  0.4119 -0.5026
  192SOL     OW  709   2.464   3.391   0.854 -0.5774 -0.1357  0.0876
  192SOL    HW1  710   2.405   3.415   0.926 -0.1290  1.2582  0.0262
  192SOL    HW2  711   2.548   3.374   0.897 -0.6474 -0.6465  0.0243
  193SOL     OW  712   3.609   3.182   2.525 -0.4850  0.1604  0.2713
  193SOL    HW1  713   3.585   3.112   2.586 -0.5463  0.0110  0.0769
  193SOL    HW2  714   3.605   3.141   2.439  2.0105 -0.3265  0.3126
  194SOL     OW  715   2.369   1.440   0.523 -0.1150 -0.3204 -0.2571
  194SOL    HW1  716   2.347   1.367   0.465  1.4326 -3.1353  2.3614
  194SOL    HW2  717   2.310   1.430   0.598  2.1181 -0.9443  1.5546
  195SOL     OW  718   1.343   1.603   1.816 -0.1436 -1.0705 -0.2227
  195SOL    HW1  719   1.259   1.576   1.779 -0.3099 -0.4784 -0.2805
  195SOL    HW2  720   1.400   1.615   1.740 -0.9159  1.6746 -0.4843
  196SOL     OW  721   0.880   2.054   1.223 -0.1348  0.3769  0.7490
  196SOL    HW1  722   0.948   2.002   1.265 -0.3626 -3.1128 -2.6466
  196SOL    HW2  723   0.815   2.069   1.292  1.5586 -0.9390  2.7374
  197SOL     OW  724   1.557   0.323   1.379 -0.0941  0.1325 -0.6472
  197SOL    HW1  725   1.560   0.244   1.433 -1.7647  0.1110 -0.5480
  197SOL    HW2  726   1.501   0.384   1.428 -1.0315  0.3797 -1.9791
  198SOL     OW  727   1.967   1.297   1.112  0.5632  0.0214  0.0874
  198SOL    HW1  728   2.030   1.369   1.111 -0.2128  0.7080 -1.5176
  198SOL    HW2  729   1.937   1.289   1.022 -0.6835 -1.1625  0.5684
  199SOL     OW  730   3.602   1.926   2.966  0.3714  0.4379  0.7655
  199SOL    HW1  731   3.526   1.917   3.025 -1.3102  1.9128 -1.0564
  199SOL    HW2  732   3.651   1.845   2.979 -1.9847 -0.9987  1.4075
  200SOL     OW  733   1.790   2.369   0.191  0.2134  0.0696  0.0836
  200SOL    HW1  734   1.726   2.316   0.144 -0.1052  1.9570 -1.7717
  200SOL    HW2  735   1.866   2.372   0.133 -0.4882  3.1177 -0.8651
  201SOL     OW  736   0.195   1.472   2.426 -0.3255 -0.0748  0.6961
  201SOL    HW1  737   0.232   1.387   2.402 -0.7187  0.2173 -1.1032
  201SOL    HW2  738   0.101   1.456   2.431 -0.3219  0.0629  1.3327
  202SOL     OW  739   2.427   0.209   2.867  0.1562 -0.4455  0.3790
  202SOL    HW1  740   2.363   0.154   2.912 -0.0012  0.6090  1.4840
  202SOL    HW2  741   2.392   0.221   2.779 -0.2026 -1.4410  0.3765
  203SOL     OW  742   1.626   2.157   3.174  0.2353 -0.0035  0.1387
  203SOL    HW1  743   1.685   2.145   3.248  0.7376 -0.9419 -0.3900
  203SOL    HW2  744   1.671   2.221   3.118 -0.3000  0.9598  0.7788
  204SOL     OW  745   1.203   0.363   0.583  0.1324  0.0565 -0.6627
  204SOL    HW1  746   1.171   0.427   0.646  0.4983 -0.2106 -0.1965
  204SOL    HW2  747   1.210   0.281   0.633  2.4593  0.3134 -0.4600
  205SOL     OW  748   2.012   0.319   2.536  0.2347  0.2396 -0.4200
  205SOL    HW1  749   1.928   0.278   2.518  0.0362  0.3564  0.2305
  205SOL    HW2  750   1.992   0.411   2.550  0.2056 -0.0214  1.5259
  206SOL     OW  751   1.661   1.306   2.550 -0.1370  0.1341  0.2727
  206SOL    HW1  752   1.621   1.372   2.495 -1.1677 -1.6245 -1.2108
  206SOL    HW2  753   1.682   1.234   2.491  1.0850 -0.8256  1.7796
  207SOL     OW  754   2.219   3.304   0.361 -0.0829 -0.0495 -0.1660
  207SOL    HW1  755   2.220   3.318   0.455  0.1611 -1.2274  0.0218
  207SOL    HW2  756   2.137   3.343   0.331  0.4450  1.5113  0.3263
  208SOL     OW  757   1.639   2.036   1.117  0.3636  0.3744 -1.0962
  208SOL    HW1  758   1.684   1.978   1.056  1.0213  2.3335 -2.5806
  208SOL    HW2  759   1.705   2.102   1.141 -0.8953  1.6915 -1.0905
  209SOL     OW  760   0.027   3.705   2.161  0.4997  0.5965  0.1848
  209SOL    HW1  761   0.011   3.613   2.184  0.5719  1.3566  3.7732
  209SOL    HW2  762   0.122   3.715   2.169  0.3917  1.1953  0.7396
  210SOL     OW  763   2.375   0.060   2.155 -0.6986  0.3214 -0.6653
  210SOL    HW1  764   2.400  -0.032   2.165 -0.0381  0.5177 -0.4729
  210SOL    HW2  765   2.348   0.087   2.243  0.1954  0.6192 -0.4695
  211SOL     OW  766   0.485   0.565   0.411  0.0405  0.0206 -0.4563
  211SOL    HW1  767   0.552   0.633   0.410  0.4416 -0.2072  2.1427
  211SOL    HW2  768   0.482   0.536   0.502 -3.6118  0.0321 -0.3981
  212SOL     OW  769   1.048   1.466   3.019  0.8749  0.0173  0.1034
  212SOL    HW1  770   0.992   1.510   2.956 -0.4941 -0.6091  0.8494
  212SOL    HW2  771   1.044   1.374   2.996  0.1687 -0.2517  1.2292
  213SOL     OW  772   2.934   1.332   2.779  0.0078 -0.0829 -0.3179
  213SOL    HW1  773   3.009   1.351   2.724  0.4756  1.5655  0.8241
  213SOL    HW2  774   2.918   1.413   2.827 -2.8830 -0.1655 -0.9456
  214SOL     OW  775   1.820   3.683   3.009  0.7490  0.0865  0.0288
  214SOL    HW1  776   1.785   3.595   2.997  0.1140  0.4518 -0.9119
  214SOL    HW2  777   1.828   3.693   3.104 -0.0319 -0.6546  0.1815
  215SOL     OW  778   1.932   2.325   2.281  0.0490 -0.2363 -0.0032
  215SOL    HW1  779   1.966   2.244   2.320  0.4214  1.0471  2.5569
  215SOL    HW2  780   1.837   2.314   2.283  0.0954 -0.6318  0.2569
  216SOL     OW  781   0.977   3.679   3.592 -0.1152  0.9752 -0.0522
  216SOL    HW1  782   0.974   3.608   3.655  0.6224 -0.2243 -1.3212
  216SOL    HW2  783   1.048   3.736   3.624  3.6355 -2.0704 -2.1547
  217SOL     OW  784   2.791   3.209   0.706  0.2043 -0.3605  0.4466
  217SOL    HW1  785   2.761   3.299   0.700  0.6622 -0.2802 -3.0279
  217SOL    HW2  786   2.757   3.167   0.627  0.0563 -3.2578  1.9042
  218SOL     OW  787   2.854   0.538   3.007  0.0305 -1.0063 -0.3715
  218SOL    HW1  788   2.787   0.475   3.032 -0.6973  0.6954  2.3490
  218SOL    HW2  789   2.812   0.623   3.017  1.5919  0.0264 -1.9703
  219SOL     OW  790   0.296   1.429   1.194 -0.2160 -0.0311  0.0234
  219SOL    HW1  791   0.359   1.501   1.193  0.0162 -0.1140 -3.3831
  219SOL    HW2  792   0.315   1.382   1.275  0.9305  2.5738  1.4127
  220SOL     OW  793   1.799   1.404   3.678 -0.9124 -0.0078 -0.4373
  220SOL    HW1  794   1.745   1.394   3.757  0.7139 -0.5568  0.6446
  220SOL    HW2  795   1.809   1.499   3.669  0.1473  0.0604  0.9611
  221SOL     OW  796   2.748   2.334   1.614  0.5697  0.4154 -0.4446
  221SOL    HW1  797   2.654   2.316   1.617  0.9068 -1.5553 -0.4741
  221SOL    HW2  798   2.756   2.426   1.638 -1.3934  0.7240 -0.8506
  222SOL     OW  799   0.422   3.627   3.446  0.1097  0.3205  0.1544
  222SOL    HW1  800   0.397   3.708   3.489  1.9669  0.0944  1.7945
  222SOL    HW2  801   0.390   3.558   3.505 -0.7422 -0.1580 -0.8246
  223SOL     OW  802   1.600   2.311   0.946 -0.5486  1.3675 -0.5606
  223SOL    HW1  803   1.610   2.331   1.039 -1.8979 -0.0199 -0.0695
  223SOL    HW2  804   1.687   2.281   0.919 -0.4078  0.6430  0.5861
  224SOL     OW  805   2.045   1.171   1.377 -0.3121 -0.3039  0.5732
  224SOL    HW1  806   1.993   1.232   1.324  0.9422 -0.0219 -0.4036
  224SOL    HW2  807   2.061   1.097   1.319  0.1648 -0.4908  0.9362
  225SOL     OW  808   1.230   1.837   1.218  0.2794  0.1551  0.4108
  225SOL    HW1  809   1.310   1.838   1.165 -0.6358  0.9543 -0.9923
  225SOL    HW2  810   1.219   1.927   1.247  1.4932 -0.4868  3.1805
  226SOL     OW  811   1.956   1.856   0.446  0.1698  0.6392  0.2576
  226SOL    HW1  812   1.908   1.798   0.388  2.4530  0.9993 -2.1573
  226SOL    HW2  813   1.906   1.856   0.528 -0.8077 -3.3713 -0.1769
  227SOL     OW  814   2.535   0.189   3.494 -0.0513  0.1006 -0.2778
  227SOL    HW1  815   2.544   0.198   3.399  0.1572 -0.9835 -0.3739
  227SOL    HW2  816   2.595   0.254   3.530 -0.5695  0.9381 -0.8690
  228SOL     OW  817   1.562   0.634   3.596 -0.6072 -0.0751  0.2995
  228SOL    HW1  818   1.590   0.681   3.517  1.0025 -1.1762  0.1597
  228SOL    HW2  819   1.472   0.664   3.611 -0.0556  2.1542 -0.4087
  229SOL     OW  820   0.923   1.578   2.109 -0.6933  0.4644  0.0991
  229SOL    HW1  821   0.960   1.666   2.118 -0.4078  0.1863  1.7674
  229SOL    HW2  822   0.831   1.588   2.134 -0.1922 -0.0664  2.3274
  230SOL     OW  823   2.435   0.747   0.827  0.4317  0.2557 -0.5561
  230SOL    HW1  824   2.480   0.663   0.822 -2.6700 -1.5880 -0.2653
  230SOL    HW2  825   2.375   0.747   0.753 -1.6743  0.8141  1.0318
  231SOL     OW  826   0.538   2.125   1.692  0.4146  0.2177 -0.3430
  231SOL    HW1  827   0.446   2.149   1.684 -0.0062 -1.7927 -2.7061
  231SOL    HW2  828   0.578   2.200   1.736 -2.2201  1.3941  0.2532
  232SOL     OW  829   1.154   1.745   2.620  0.4453 -0.0277  0.1168
  232SOL    HW1  830   1.128   1.813   2.683  0.2731 -0.0776  0.0993
  232SOL    HW2  831   1.185   1.794   2.544  0.3549  0.0312  0.1178
  233SOL     OW  832   0.923   2.879   2.126 -0.0213  0.2397 -0.2240
  233SOL    HW1  833   0.938   2.953   2.185 -0.9573 -0.6948  1.2411
  233SOL    HW2  834   0.947   2.913   2.040  1.9676  1.4717  0.7211
  234SOL     OW  835   2.271   2.245   1.795  0.2124  0.0995 -0.1459
  234SOL    HW1  836   2.315   2.328   1.774  0.9928 -0.6266 -1.4740
  234SOL    HW2  837   2.224   2.264   1.876  1.1961  1.5564  0.1362
  235SOL     OW  838   2.821   0.800   2.217 -0.5336 -0.3759 -0.1367
  235SOL    HW1  839   2.914   0.799   2.238  0.0567 -1.3463 -2.4431
  235SOL    HW2  840   2.783   0.731   2.272  0.1982 -0.3847  0.3702
  236SOL     OW  841   1.479   0.562   2.368 -0.2067  0.1515 -0.2262
  236SOL    HW1  842   1.548   0.628   2.372  1.6255 -1.6453 -0.6896
  236SOL    HW2  843   1.415   0.591   2.433  1.5181  1.2809  1.0691
  237SOL     OW  844   0.234   1.191   2.130  0.6089  0.5152 -0.4264
  237SOL    HW1  845   0.252   1.143   2.050  1.6910  2.0400 -1.1468
  237SOL    HW2  846   0.144   1.166   2.154 -0.2731  1.0298 -2.8676
  238SOL     OW  847   2.585   0.924   3.032  0.6817  0.1717  0.1860
  238SOL    HW1  848   2.584   0.976   3.112  2.5621 -0.5792  0.7612
  238SOL    HW2  849   2.608   0.986   2.963 -2.0895  1.0659 -0.0486
  239SOL     OW  850   2.447   1.020   1.515 -0.7486  0.1021 -0.1354
  239SOL    HW1  851   2.388   0.959   1.559 -1.2543 -0.9027 -2.0985
  239SOL    HW2  852   2.413   1.106   1.536 -1.5436 -0.3882  0.6215
  240SOL     OW  853   2.129   0.870   2.069  0.1305  0.3102  0.4336
  240SOL    HW1  854   2.162   0.819   1.995  0.8173 -1.1311  1.6708
  240SOL    HW2  855   2.062   0.813   2.109 -0.1757  1.0225  0.9595
  241SOL     OW  856   1.364   2.105   0.800 -0.2454  0.7622 -0.2152
  241SOL    HW1  857   1.423   2.178   0.817  1.8463 -0.3318 -2.1752
  241SOL    HW2  858   1.338   2.116   0.709 -0.6784 -0.3936 -0.2422
  242SOL     OW  859   3.086   2.643   3.073 -0.7082 -0.1748 -0.0832
  242SOL    HW1  860   3.084   2.564   3.018 -2.3836 -0.2184 -0.0065
  242SOL    HW2  861   3.006   2.690   3.050 -0.4669  0.7714  0.9454
  243SOL     OW  862   3.109   0.895   1.102 -0.2951 -0.2633  0.0353
  243SOL    HW1  863   3.118   0.983   1.138  0.1462  0.3402 -1.4669
  243SOL    HW2  864   3.137   0.904   1.010  0.4834 -2.1130  0.0505
  244SOL     OW  865   0.089   1.160   3.140  0.0415 -0.6347  0.0715
  244SOL    HW1  866   0.138   1.078   3.134  0.4333 -0.4523  0.6929
  244SOL    HW2  867   0.035   1.151   3.218 -0.1816 -0.4409 -0.0584
  245SOL     OW  868   3.369   2.119   1.245  0.2779  0.3389 -0.4512
  245SOL    HW1  869   3.364   2.195   1.304 -0.6723  0.3733 -0.5657
  245SOL    HW2  870   3.305   2.058   1.280  1.8392 -0.9401  0.3316
  246SOL     OW  871   2.144   1.154   3.432 -0.1962 -0.4573 -0.3586
  246SOL    HW1  872   2.204   1.216   3.472 -0.0796 -1.1221  0.5416
  246SOL    HW2  873   2.201   1.086   3.395 -0.3337 -2.3673  2.5852
  247SOL     OW  874   0.510   0.482   2.558  0.5850  0.0257 -0.2283
  247SOL    HW1  875   0.492   0.436   2.640  1.3195  0.8900  0.4364
  247SOL    HW2  876   0.549   0.416   2.501 -0.1392 -0.6364  0.0331
  248SOL     OW  877   1.232   1.045   0.635  0.2084 -1.1390 -0.1615
  248SOL    HW1  878   1.168   1.013   0.699 -0.0594  0.6012  0.5042
  248SOL    HW2  879   1.183   1.051   0.553 -0.0586 -1.2839 -0.0131
  249SOL     OW  880   0.385   1.696   1.278 -0.4698 -0.0440  0.4027
  249SOL    HW1  881   0.356   1.719   1.190 -0.0236  1.1390  0.5613
  249SOL    HW2  882   0.314   1.726   1.335  0.4098  1.6261  0.6698
  250SOL     OW  883   1.624   0.135   1.585  0.1089  0.5361 -0.1873
  250SOL    HW1  884   1.564   0.062   1.575 -0.2028  0.8744 -0.8121
  250SOL    HW2  885   1.623   0.155   1.679  0.7761 -0.7418  0.1121
  251SOL     OW  886   2.846   1.511   2.048 -0.2922  0.1449 -1.0522
  251SOL    HW1  887   2.835   1.581   1.985 -1.2178  1.2968  0.3378
  251SOL    HW2  888   2.806   1.544   2.129 -1.9526 -2.4645 -0.6828
  252SOL     OW  889   1.902   3.527   0.760  0.8456 -0.2029  0.5557
  252SOL    HW1  890   1.839   3.482   0.817  1.6607 -0.2596  1.4395
  252SOL    HW2  891   1.942   3.593   0.817  0.7886  0.5979 -0.3028
  253SOL     OW  892   2.681   3.593   1.131  0.2643  0.0942 -0.3332
  253SOL    HW1  893   2.671   3.565   1.222 -2.0739  2.2221  0.1850
  253SOL    HW2  894   2.684   3.512   1.081 -1.5018 -1.1413  1.4094
  254SOL     OW  895   1.192   0.144   1.233  0.3166 -0.0659 -0.5915
  254SOL    HW1  896   1.245   0.108   1.162  1.8440 -0.3267  0.6053
  254SOL    HW2  897   1.174   0.234   1.207  0.2102 -0.3805 -1.6340
  255SOL     OW  898   2.413   3.376   1.199 -0.1670  0.5119 -0.3399
  255SOL    HW1  899   2.361   3.359   1.278 -0.9142 -0.7540 -1.0693
  255SOL    HW2  900   2.500   3.399   1.232  0.3742 -2.7737  0.8855
  256SOL     OW  901   2.707   3.524   1.806  0.8768  0.4309  0.0466
  256SOL    HW1  902   2.771   3.556   1.743  0.4137 -0.6164 -0.9903
  256SOL    HW2  903   2.642   3.477   1.754 -1.2995  2.2278  0.9199
  257SOL     OW  904   0.890   1.458   2.426 -0.6041 -0.1894  0.4153
  257SOL    HW1  905   0.921   1.548   2.424 -1.2138  0.0086 -0.9310
  257SOL    HW2  906   0.827   1.452   2.355 -0.1387 -1.8501  0.0899
  258SOL     OW  907   2.858   2.928   2.389  0.4566 -0.0673 -0.2329
  258SOL    HW1  908   2.865   2.890   2.477  0.9410  1.2961  0.3497
  258SOL    HW2  909   2.925   2.882   2.338 -0.1725 -1.2347 -0.0554
  259SOL     OW  910   0.157   0.447   0.626  0.2063  0.0829  0.1587
  259SOL    HW1  911   0.123   0.501   0.555 -1.4672  0.1255  0.9394
  259SOL    HW2  912   0.204   0.376   0.583 -0.4257  0.3373 -0.9804
  260SOL     OW  913   0.679   2.506   1.474  0.1442  0.1534  0.1436
  260SOL    HW1  914   0.714   2.570   1.411 -1.8615  1.0277 -0.1626
  260SOL    HW2  915   0.739   2.510   1.548  1.9270 -0.0641 -1.2196
  261SOL     OW  916   1.052   1.588   3.633  0.2631  0.3655  0.0815
  261SOL    HW1  917   1.108   1.511   3.639  1.0054  0.9255  0.7385
  261SOL    HW2  918   0.990   1.580   3.706  0.0365  0.1556 -0.1361
  262SOL     OW  919   1.533   2.124   1.454  0.1928 -0.4495 -0.5987
  262SOL    HW1  920   1.482   2.046   1.433 -0.0042 -0.7678  0.9369
  262SOL    HW2  921   1.474   2.178   1.505  0.4850  0.5083 -1.2470
  263SOL     OW  922   0.066   2.179   1.828 -0.0414  0.6186 -0.0689
  263SOL    HW1  923   0.022   2.229   1.759 -1.0920  0.1327  0.2130
  263SOL    HW2  924   0.119   2.244   1.874  0.1211  1.0864 -0.8850
  264SOL     OW  925   3.372   2.542   1.138 -0.1841  0.3895 -0.6175
  264SOL    HW1  926   3.337   2.505   1.219  1.5026 -0.3623 -0.1878
  264SOL    HW2  927   3.407   2.468   1.090  0.9534  1.0915 -0.9277
  265SOL     OW  928   0.073   0.018   3.395 -0.0664 -0.3723 -0.3480
  265SOL    HW1  929   0.053   0.111   3.401 -0.2674 -0.2847 -1.9535
  265SOL    HW2  930   0.100   0.005   3.304  0.6479 -1.7542  0.0306
  266SOL     OW  931   0.344   0.018   2.142 -0.1148  0.0078 -0.2648
  266SOL    HW1  932   0.434   0.004   2.112  0.0263  1.0027 -0.3211
  266SOL    HW2  933   0.336   0.112   2.154 -1.3495  0.0109 -0.8882
  267SOL     OW  934   2.148   2.838   2.359 -0.4530 -0.2751 -0.0871
  267SOL    HW1  935   2.190   2.916   2.324 -0.0228  0.1647  1.3187
  267SOL    HW2  936   2.055   2.862   2.366 -0.3961 -0.0467 -0.1038
  268SOL     OW  937   2.719   3.337   3.011 -0.1438  0.8120  0.6539
  268SOL    HW1  938   2.627   3.331   2.987  0.2355 -1.5809 -0.5258
  268SOL    HW2  939   2.731   3.268   3.076  0.6891  1.5789  1.3365
  269SOL     OW  940   3.323   0.726   0.948  0.0911  0.0230  0.1975
  269SOL    HW1  941   3.408   0.759   0.921 -0.5815  0.2089 -1.9017
  269SOL    HW2  942   3.293   0.788   1.015  0.7293  1.1493 -0.5238
  270SOL     OW  943   0.389   1.564   3.604 -0.1309 -0.5148  0.0643
  270SOL    HW1  944   0.351   1.569   3.691 -1.0644  1.0752 -0.4008
  270SOL    HW2  945   0.438   1.645   3.593 -2.1054  0.5341 -1.7657
  271SOL     OW  946   3.009   2.046   2.398  0.3482 -0.4291 -0.5134
  271SOL    HW1  947   2.952   2.011   2.467  1.0829 -0.9831 -0.1756
  271SOL    HW2  948   3.070   2.103   2.444 -0.6871  1.1772 -1.0344
  272SOL     OW  949   2.202   0.424   1.333 -0.6823 -0.1228 -0.6056
  272SOL    HW1  950   2.235   0.416   1.243  1.1341  3.2485 -0.3947
  272SOL    HW2  951   2.280   0.420   1.387 -1.4111  0.8564  0.5629
  273SOL     OW  952   2.156   2.143   2.858  0.6022 -0.2790 -0.1950
  273SOL    HW1  953   2.166   2.076   2.925 -1.5624  0.5099  1.0158
  273SOL    HW2  954   2.162   2.226   2.906  2.4525  0.4265 -1.5434
  274SOL     OW  955   3.615   3.459   2.926 -0.2934  0.5638  0.5197
  274SOL    HW1  956   3.681   3.478   2.859 -0.3977 -0.1036  0.2153
  274SOL    HW2  957   3.635   3.519   2.998  0.5887  0.4319  0.3911
  275SOL     OW  958   2.663   0.195   2.047 -0.2118 -0.1987 -0.3210
  275SOL    HW1  959   2.684   0.276   2.001 -1.2801 -0.3279 -1.0555
  275SOL    HW2  960   2.732   0.134   2.020  1.9090  1.0125  1.9264
  276SOL     OW  961   0.936   1.049   2.763 -0.4797  0.1125 -0.6580
  276SOL    HW1  962   0.961   1.038   2.671  0.2117  0.2612 -0.4884
  276SOL    HW2  963   0.981   0.978   2.809 -1.3911 -0.4040 -0.5234
  277SOL     OW  964   3.163   0.943   0.477  0.5143  0.4622  0.1373
  277SOL    HW1  965   3.234   1.006   0.467  0.4697  0.3361 -1.1127
  277SOL    HW2  966   3.193   0.865   0.430  0.5636 -0.4690  1.6409
  278SOL     OW  967   2.896   0.325   0.447  0.1904  0.1215  0.2988
  278SOL    HW1  968   2.936   0.330   0.534  0.1267 -2.0222  0.5016
  278SOL    HW2  969   2.940   0.394   0.397  0.5910  1.0568  1.8760
  279SOL     OW  970   2.645   0.979   0.117  0.3174 -0.0227  0.2733
  279SOL    HW1  971   2.577   0.981   0.049  0.8659  0.0386 -0.2863
  279SOL    HW2  972   2.722   1.017   0.074  1.2078 -1.6574  0.3455
  280SOL     OW  973   3.353   2.757   0.922  0.3859  0.0697 -0.7117
  280SOL    HW1  974   3.355   2.676   0.973  0.6670 -0.4028 -1.4398
  280SOL    HW2  975   3.280   2.745   0.861  0.1402  0.5624 -0.5184
  281SOL     OW  976   1.659   2.674   3.160  0.1632  0.2829  0.2396
  281SOL    HW1  977   1.631   2.705   3.246 -0.3094 -2.1270  1.0233
  281SOL    HW2  978   1.579   2.671   3.108  0.3568  1.2092 -0.1194
  282SOL     OW  979   0.021   3.382   0.079  0.1659 -0.1347  1.1607
  282SOL    HW1  980   0.062   3.444   0.018 -1.5551 -1.4814 -1.5878
  282SOL    HW2  981   0.075   3.386   0.158  3.6291  0.4789 -1.0343
  283SOL     OW  982   1.512   1.430   2.016  0.1698  0.0917 -0.2508
  283SOL    HW1  983   1.463   1.452   2.096 -0.2196 -1.2179 -0.1048
  283SOL    HW2  984   1.491   1.500   1.955  0.7869  1.3372  0.9166
  284SOL     OW  985   3.217   2.120   0.761  0.4989 -0.6147 -0.0880
  284SOL    HW1  986   3.160   2.126   0.837  1.1412 -1.7211  0.5118
  284SOL    HW2  987   3.247   2.209   0.746  1.3680 -0.5317  1.7809
  285SOL     OW  988   2.185   0.138   0.274 -0.2837 -0.4284 -0.2546
  285SOL    HW1  989   2.133   0.184   0.208  1.3217 -0.9617 -1.9832
  285SOL    HW2  990   2.214   0.058   0.230  1.1282 -0.6502  0.9845
  286SOL     OW  991   2.555   2.324   2.551 -0.0291 -0.2291 -0.5002
  286SOL    HW1  992   2.506   2.243   2.562 -0.9436  0.0152 -2.4231
  286SOL    HW2  993   2.647   2.296   2.546 -0.1278 -0.9014  0.9510
  287SOL     OW  994   1.118   1.302   1.665 -0.4447 -0.5176 -0.4509
  287SOL    HW1  995   1.208   1.276   1.648 -0.3574 -0.1982 -0.4800
  287SOL    HW2  996   1.104   1.285   1.758  0.7176  2.5636  0.3975
  288SOL     OW  997   1.948   3.458   1.983  0.5099 -0.2085  0.1297
  288SOL    HW1  998   2.027   3.511   1.977  0.6826 -0.4837 -0.0219
  288SOL    HW2  999   1.890   3.508   2.041  0.0433  0.9340 -1.2572
  289SOL     OW 1000   2.082   1.123   1.635  0.2541  0.0881 -0.0785
  289SOL    HW1 1001   2.056   1.147   1.546  2.2318 -2.2415 -1.4177
  289SOL    HW2 1002   2.055   1.031   1.644  0.9753 -0.0141  1.3399
  290SOL     OW 1003   1.221   3.599   0.663  0.4267  0.0577 -0.7648
  290SOL    HW1 1004   1.211   3.556   0.578 -0.5596 -0.4988 -0.3780
  290SOL    HW2 1005   1.262   3.683   0.642  1.4335 -0.6248 -1.6451
  291SOL     OW 1006   3.659   1.363   2.110  0.4328  0.3094 -0.3036
  291SOL    HW1 1007   3.583   1.420   2.121  2.4234  3.4534 -1.4639
  291SOL    HW2 1008   3.660   1.309   2.189 -4.1454 -1.5847 -1.1907
  292SOL     OW 1009   1.532   2.146   2.870  0.2154 -0.4914 -0.0645
  292SOL    HW1 1010   1.543   2.189   2.785 -1.5525 -0.4156 -0.2908
  292SOL    HW2 1011   1.619   2.150   2.910  1.0428 -0.3593 -1.7779
  293SOL     OW 1012   2.725   3.349   0.969  0.3144 -0.4514 -0.3525
  293SOL    HW1 1013   2.761   3.383   0.887 -0.1625 -1.5633 -1.0440
  293SOL    HW2 1014   2.784   3.279   0.995 -0.6669 -1.5003 -0.8723
  294SOL     OW 1015   2.995   3.697   0.541  0.0388  0.1310 -0.4086
  294SOL    HW1 1016   2.972   3.663   0.455 -1.5130  0.6251 -0.2316
  294SOL    HW2 1017   2.925   3.666   0.599 -0.2409  1.7178  0.1811
  295SOL     OW 1018   0.227   1.763   1.691 -0.2612  0.0684 -0.3389
  295SOL    HW1 1019   0.289   1.794   1.757 -2.7204 -2.1655  3.4132
  295SOL    HW2 1020   0.167   1.837   1.679 -0.7424 -0.0138  1.3255
  296SOL     OW 1021   2.528   0.628   2.075  0.0961  0.0516  0.4616
  296SOL    HW1 1022   2.577   0.620   2.157  0.0579  0.0519  0.4842
  296SOL    HW2 1023   2.509   0.537   2.050  0.0234  0.0559  0.5031
  297SOL     OW 1024   0.864   3.672   2.797 -0.0940  0.1475  0.1830
  297SOL    HW1 1025   0.781   3.708   2.826 -0.8782 -1.5362  0.1517
  297SOL    HW2 1026   0.898   3.624   2.872 -1.7772 -3.6025 -1.1971
  298SOL     OW 1027   2.988   1.644   0.201 -0.1036  0.2912 -0.2757
  298SOL    HW1 1028   2.921   1.625   0.136 -0.8123  1.5336  0.0556
  298SOL    HW2 1029   2.940   1.680   0.276  0.5801 -1.9263  1.3443
  299SOL     OW 1030   0.140   1.965   0.146 -0.2438  0.5936 -0.6140
  299SOL    HW1 1031   0.174   2.046   0.185 -0.2332 -0.3516  1.4413
  299SOL    HW2 1032   0.107   1.993   0.060  0.6253  2.5846 -0.3675
  300SOL     OW 1033   2.764   3.202   2.124 -0.5792 -0.5437  0.2590
  300SOL    HW1 1034   2.827   3.236   2.060  0.9700 -5.2998 -1.1344
  300SOL    HW2 1035   2.811   3.208   2.208  0.3518 -0.8568 -0.2202
  301SOL     OW 1036   1.853   0.916   0.147 -0.6912  0.1018 -0.2614
  301SOL    HW1 1037   1.777   0.938   0.200  0.0386  3.2124 -0.3544
  301SOL    HW2 1038   1.926   0.914   0.209 -0.6725 -2.5242 -0.2311
  302SOL     OW 1039   1.055   0.798   1.224 -0.1788  0.5041 -0.0021
  302SOL    HW1 1040   1.057   0.854   1.302  1.1122  0.1276  0.2624
  302SOL    HW2 1041   0.992   0.840   1.166 -0.7184  1.1210  0.9983
  303SOL     OW 1042   3.170   2.626   0.207  0.7699 -0.1072 -0.1936
  303SOL    HW1 1043   3.242   2.674   0.247 -0.0219  1.0325 -0.0674
  303SOL    HW2 1044   3.108   2.610   0.278 -0.8850  2.3837 -0.9354
  304SOL     OW 1045   2.137   2.991   2.695  0.4718  0.8975 -0.1546
  304SOL    HW1 1046   2.133   2.999   2.599  0.8233  0.6719 -0.1907
  304SOL    HW2 1047   2.149   2.898   2.710  1.3094  1.0331  0.0739
  305SOL     OW 1048   0.168   1.474   1.671 -0.1940  0.3953  0.4975
  305SOL    HW1 1049   0.179   1.567   1.654 -3.2442  0.6332 -0.8130
  305SOL    HW2 1050   0.254   1.436   1.656  0.5864  2.6698 -1.2952
  306SOL     OW 1051   0.868   0.377   2.678  0.2199 -0.2279 -0.3627
  306SOL    HW1 1052   0.826   0.320   2.614 -0.3704 -1.8189  1.3519
  306SOL    HW2 1053   0.799   0.397   2.742  0.8135  1.2083 -0.1195
  307SOL     OW 1054   1.097   0.286   0.340  0.3938  0.3801 -0.1530
  307SOL    HW1 1055   1.126   0.310   0.428  0.7358  0.8380 -0.3855
  307SOL    HW2 1056   1.177   0.289   0.286  0.3608 -0.7822 -0.3065
  308SOL     OW 1057   2.733   0.396   3.506 -0.2325 -0.4024 -0.2000
  308SOL    HW1 1058   2.765   0.422   3.420 -1.5151  0.9805 -0.3103
  308SOL    HW2 1059   2.742   0.474   3.560  1.9776 -1.6777  1.4095
  309SOL     OW 1060   1.580   3.595   1.493 -0.1929  0.5521  0.0286
  309SOL    HW1 1061   1.563   3.501   1.494 -0.0855  0.5175  1.6533
  309SOL    HW2 1062   1.651   3.606   1.557 -1.5083  1.9402  1.3332
  310SOL     OW 1063   0.627   3.678   1.179 -0.7995  0.1190  0.3716
  310SOL    HW1 1064   0.632   3.591   1.220 -1.4753  0.6210  1.5768
  310SOL    HW2 1065   0.713   3.690   1.137 -1.3801 -1.9350 -1.5762
  311SOL     OW 1066   0.185   0.640   3.699  0.2015  0.3447 -0.4985
  311SOL    HW1 1067   0.263   0.684   3.734  0.5503 -1.9676  2.0094
  311SOL    HW2 1068   0.218   0.556   3.667 -1.1491 -0.5007  0.2219
  312SOL     OW 1069   2.331   0.423   3.521  0.1662  0.2768 -0.3086
  312SOL    HW1 1070   2.316   0.421   3.427  0.4114  0.7065 -0.3601
  312SOL    HW2 1071   2.426   0.416   3.530  0.2119  0.9861 -0.1304
  313SOL     OW 1072   1.254   1.837   1.646 -0.5071  0.2726  0.1181
  313SOL    HW1 1073   1.206   1.757   1.663  1.7636 -0.4358  4.4202
  313SOL    HW2 1074   1.344   1.809   1.632  0.4217  1.9617  2.1264
  314SOL     OW 1075   2.572   0.548   2.600 -0.5949 -0.3976  0.4906
  314SOL    HW1 1076   2.616   0.490   2.662  1.0513  1.1559  0.8774
  314SOL    HW2 1077   2.635   0.619   2.586 -2.9109  1.8390  0.8400
  315SOL     OW 1078   2.613   0.201   2.325  0.2926  0.6548  0.0158
  315SOL    HW1 1079   2.613   0.106   2.341 -0.3337  0.6544  0.0439
  315SOL    HW2 1080   2.603   0.209   2.230 -1.7600  0.6832  0.1710
  316SOL     OW 1081   1.036   0.412   1.224 -1.1219 -0.5327 -0.3374
  316SOL    HW1 1082   0.959   0.469   1.216 -1.6266 -0.9802  1.0820
  316SOL    HW2 1083   1.089   0.433   1.147 -2.0470  0.7105 -0.6712
  317SOL     OW 1084   2.025   3.270   1.833  0.6199  0.4911  0.1977
  317SOL    HW1 1085   1.958   3.248   1.768  1.0456 -0.5132  0.0845
  317SOL    HW2 1086   1.983   3.334   1.890 -1.1539 -1.5771  1.3417
  318SOL     OW 1087   0.059   3.602   1.539 -0.5126 -0.1411  0.2862
  318SOL    HW1 1088   0.120   3.614   1.466 -0.3879  0.2867  0.4510
  318SOL    HW2 1089  -0.025   3.583   1.498 -0.0048 -2.1225  0.0746
  319SOL     OW 1090   2.526   2.070   1.663  0.1470  0.3451 -1.0002
  319SOL    HW1 1091   2.496   2.155   1.631 -1.9577  0.1254  0.1797
  319SOL    HW2 1092   2.535   2.081   1.757 -1.1857 -0.9513 -0.6683
  320SOL     OW 1093   3.608   3.232   3.097 -0.9370 -0.1064  0.0819
  320SOL    HW1 1094   3.603   3.297   3.027 -3.3632 -2.4790 -2.1499
  320SOL    HW2 1095   3.662   3.162   3.061 -0.9501 -0.7066  1.1996
  321SOL     OW 1096   3.395   2.914   2.960  0.5254 -0.4207 -0.0971
  321SOL    HW1 1097   3.435   2.838   3.003  0.0874 -0.3622  0.4191
  321SOL    HW2 1098   3.336   2.876   2.895 -0.2424 -0.5407  0.6568
  322SOL     OW 1099   1.660   2.308   2.298  0.1381  0.7509 -0.4176
  322SOL    HW1 1100   1.636   2.224   2.336  1.7739  0.5621  0.2908
  322SOL    HW2 1101   1.581   2.361   2.306 -1.2813 -1.0221 -1.8825
  323SOL     OW 1102   3.177   2.913   2.164 -0.0124  0.1797 -0.0114
  323SOL    HW1 1103   3.256   2.889   2.117 -0.9561  0.6118 -1.9192
  323SOL    HW2 1104   3.171   2.849   2.236  2.0662  0.2149  0.2409
  324SOL     OW 1105   0.461   1.188   0.239  0.0600  0.3977 -0.4284
  324SOL    HW1 1106   0.492   1.127   0.172 -0.2971  1.6077 -1.7457
  324SOL    HW2 1107   0.541   1.219   0.282  0.2077 -1.6010  0.8764
  325SOL     OW 1108   1.640   2.805   1.191  0.0763 -0.5217 -0.3355
  325SOL    HW1 1109   1.662   2.779   1.101 -0.0297  0.8359 -0.7755
  325SOL    HW2 1110   1.577   2.876   1.181 -1.3128 -1.5019  0.8572
  326SOL     OW 1111   2.528   3.225   0.518 -0.2254  0.1429  1.2902
  326SOL    HW1 1112   2.469   3.183   0.580 -3.9981  2.3882 -0.4412
  326SOL    HW2 1113   2.508   3.319   0.525  2.6809  0.9912  0.0073
  327SOL     OW 1114   0.723   0.000   0.156 -0.0690 -0.0563 -0.3154
  327SOL    HW1 1115   0.782  -0.005   0.231  0.2507 -0.7700 -0.6072
  327SOL    HW2 1116   0.747   0.082   0.111 -1.4987  1.3584  1.3608
  328SOL     OW 1117   2.510   0.916   0.997 -0.0311 -0.1208 -0.4021
  328SOL    HW1 1118   2.475   0.881   1.079 -2.2265  4.0917  0.7662
  328SOL    HW2 1119   2.480   0.855   0.930 -1.5567 -1.6772  1.5820
  329SOL     OW 1120   3.545   2.969   2.656  0.0044 -0.1063 -0.3327
  329SOL    HW1 1121   3.492   2.973   2.736 -1.1376  0.4059 -1.0778
  329SOL    HW2 1122   3.619   2.914   2.679  1.6713  2.8878  2.2000
  330SOL     OW 1123   0.660   3.089   3.571 -1.1064 -0.0046  0.6084
  330SOL    HW1 1124   0.657   3.127   3.483  0.0188  0.9415  0.9605
  330SOL    HW2 1125   0.592   3.022   3.570 -0.1336 -1.0761 -1.4812
  331SOL     OW 1126   2.272   3.189   0.694  0.2812 -0.1947 -0.1237
  331SOL    HW1 1127   2.265   3.251   0.766  2.1446  0.7883 -0.7272
  331SOL    HW2 1128   2.293   3.106   0.736 -1.0538 -0.2002  0.6005
  332SOL     OW 1129   0.173   2.580   1.922 -0.6688  0.2187 -0.2708
  332SOL    HW1 1130   0.164   2.522   1.997  2.5195 -0.2028 -0.0949
  332SOL    HW2 1131   0.196   2.522   1.849  3.4385  1.1079  0.0815
  333SOL     OW 1132   1.004   0.371   3.593 -0.5941  0.2439 -0.0920
  333SOL    HW1 1133   1.099   0.385   3.590 -0.7749  1.4637 -0.4508
  333SOL    HW2 1134   0.972   0.436   3.656 -1.1578 -0.4212  0.3275
  334SOL     OW 1135   0.182   2.975   1.386 -0.3204 -0.2259 -0.3610
  334SOL    HW1 1136   0.145   3.020   1.461  0.5821 -0.0970  0.0161
  334SOL    HW2 1137   0.186   3.042   1.317  0.3324  0.0843 -0.0283
  335SOL     OW 1138   3.036   0.715   0.860  0.0051 -0.0670  0.8202
  335SOL    HW1 1139   2.954   0.764   0.850 -1.0614 -1.7261  1.0117
  335SOL    HW2 1140   3.097   0.757   0.799 -1.4454  0.2807 -0.4519
  336SOL     OW 1141   0.648   1.730   0.862  0.7145  0.2214  0.5365
  336SOL    HW1 1142   0.709   1.802   0.878 -2.0601  2.9922 -0.3313
  336SOL    HW2 1143   0.610   1.712   0.948 -0.3569  1.6634  0.4206
  337SOL     OW 1144   0.902   2.192   2.282  0.0108  0.0390  0.2185
  337SOL    HW1 1145   0.926   2.142   2.359 -2.1018  0.7099  1.3961
  337SOL    HW2 1146   0.807   2.181   2.275 -0.1737  1.9296 -0.8868
  338SOL     OW 1147   1.245   1.074   1.427  0.4382  0.0920 -0.6685
  338SOL    HW1 1148   1.210   1.139   1.366  0.5888  2.8946  2.0055
  338SOL    HW2 1149   1.315   1.120   1.474  3.8816 -3.4810 -1.7446
  339SOL     OW 1150   1.626   2.489   1.776  0.3494  0.1881  0.0427
  339SOL    HW1 1151   1.699   2.496   1.837 -0.9114 -1.5161  1.8611
  339SOL    HW2 1152   1.631   2.399   1.743 -1.5534 -0.3855  1.1472
  340SOL     OW 1153   2.404   0.350   2.103  0.2749 -0.7993  0.0740
  340SOL    HW1 1154   2.403   0.254   2.102 -3.8923 -0.9688  0.5575
  340SOL    HW2 1155   2.351   0.373   2.180 -1.1870  1.7679 -1.5697
  341SOL     OW 1156   2.540   2.077   3.551  0.6745 -0.2804  0.3896
  341SOL    HW1 1157   2.481   2.045   3.619  2.6666 -0.4696  2.1483
  341SOL    HW2 1158   2.592   2.001   3.526  2.2171  0.4722  1.1457
  342SOL     OW 1159   0.287   3.548   3.162 -0.0922  0.6820  0.2171
  342SOL    HW1 1160   0.230   3.492   3.109  0.7058  0.2426 -0.1859
  342SOL    HW2 1161   0.331   3.488   3.222 -1.2209  1.2049  1.6460
  343SOL     OW 1162   1.526   3.523   0.729 -0.3047  0.2967  0.3162
  343SOL    HW1 1163   1.433   3.535   0.749 -0.6148  1.0470 -1.4415
  343SOL    HW2 1164   1.571   3.577   0.794 -1.1174  0.2911  0.9045
  344SOL     OW 1165   2.405   1.509   3.134  0.1307  0.4022 -0.5096
  344SOL    HW1 1166   2.439   1.423   3.160  0.2114  0.4169 -0.5639
  344SOL    HW2 1167   2.336   1.489   3.071 -2.0605  0.2276  1.7752
  345SOL     OW 1168   1.327   2.999   2.012 -0.3304 -0.8193  0.1285
  345SOL    HW1 1169   1.274   3.077   1.997  0.9051  0.1914  0.8546
  345SOL    HW2 1170   1.324   2.986   2.107 -0.3049 -1.4927  0.0386
  346SOL     OW 1171   2.440   2.780   2.201 -0.3507 -0.4400  0.4848
  346SOL    HW1 1172   2.524   2.827   2.202 -0.1255 -0.7795 -0.5070
  346SOL    HW2 1173   2.395   2.809   2.279  0.5555  0.0221  0.8538
  347SOL     OW 1174   2.922   2.399   2.669 -0.7124  0.2530  0.2973
  347SOL    HW1 1175   2.920   2.353   2.585 -0.9799  1.1343 -0.1916
  347SOL    HW2 1176   2.852   2.358   2.720 -1.0193  0.1921 -0.1691
  348SOL     OW 1177   1.744   0.643   0.095 -0.0376  0.3425 -0.1429
  348SOL    HW1 1178   1.676   0.663   0.030  0.7801 -1.0987 -1.5101
  348SOL    HW2 1179   1.780   0.728   0.120 -1.8222  1.0741  0.0646
  349SOL     OW 1180   3.090   1.762   2.241  0.3558 -0.1585 -0.0231
  349SOL    HW1 1181   3.038   1.807   2.174  0.9415 -0.9824 -1.0723
  349SOL    HW2 1182   3.100   1.826   2.311  0.2193  0.9453 -0.9822
  350SOL     OW 1183   2.119   1.970   3.393 -0.2014 -0.3885  0.1136
  350SOL    HW1 1184   2.187   1.971   3.325 -1.7725  1.3273 -1.5298
  350SOL    HW2 1185   2.143   2.043   3.451 -0.0040 -0.5290  0.2098
  351SOL     OW 1186   0.806   1.090   1.760  0.6332  0.1818 -0.0240
  351SOL    HW1 1187   0.884   1.132   1.796  1.1922 -0.6247 -0.2475
  351SOL    HW2 1188   0.816   0.997   1.784  1.2652 -0.5019 -2.6181
  352SOL     OW 1189   1.634   2.544   0.028 -0.0713  0.5726  0.5091
  352SOL    HW1 1190   1.680   2.516   0.107 -0.8427 -2.1325  0.1227
  352SOL    HW2 1191   1.653   2.637   0.020  5.1294 -0.1758  0.5515
  353SOL     OW 1192   3.300   2.391   2.768  0.1935 -0.0782 -0.2590
  353SOL    HW1 1193   3.355   2.392   2.690 -0.0116  1.0155 -0.4064
  353SOL    HW2 1194   3.336   2.460   2.824 -1.0600  0.7245 -0.4053
  354SOL     OW 1195   0.272   2.186   1.561  0.2267  0.7623 -0.3964
  354SOL    HW1 1196   0.227   2.121   1.508  1.2007  0.5080 -0.9221
  354SOL    HW2 1197   0.322   2.238   1.499  3.1142 -0.8719  0.3614
  355SOL     OW 1198   0.359   0.043   2.995 -0.6428 -0.1628  0.2441
  355SOL    HW1 1199   0.318  -0.008   3.065 -2.3537  0.4919 -0.2320
  355SOL    HW2 1200   0.297   0.114   2.978  0.4377  0.5343 -0.9389
  356SOL     OW 1201   0.369   0.924   2.333 -0.3596 -0.0201 -0.0624
  356SOL    HW1 1202   0.359   0.993   2.398 -0.2911  1.0322 -1.1311
  356SOL    HW2 1203   0.281   0.911   2.297  0.0496  1.5078 -1.7887
  357SOL     OW 1204   3.726   0.953   2.730  0.2730 -0.5285  0.6996
  357SOL    HW1 1205   3.731   1.026   2.792 -1.2042  0.6377 -0.4595
  357SOL    HW2 1206   3.632   0.934   2.723  0.4915 -1.3441 -0.3585
  358SOL     OW 1207   2.401   2.712   1.936 -0.4719  0.2700  0.6270
  358SOL    HW1 1208   2.453   2.729   2.015  0.4900 -0.1512  0.1058
  358SOL    HW2 1209   2.318   2.757   1.952  0.9413  3.1679  0.4268
  359SOL     OW 1210   0.913   2.320   1.581  0.1560  0.0725 -0.2419
  359SOL    HW1 1211   0.962   2.246   1.616  0.9881  1.2561  1.2095
  359SOL    HW2 1212   0.871   2.360   1.657  3.2321  3.6392 -0.1392
  360SOL     OW 1213   3.586   2.109   0.209 -0.3152  0.4417 -1.0885
  360SOL    HW1 1214   3.614   2.183   0.262  0.9461 -2.1197  2.1813
  360SOL    HW2 1215   3.667   2.070   0.176 -0.1418 -2.9674  2.5971
  361SOL     OW 1216   2.127   1.334   0.249  0.1398  0.5281  0.2760
  361SOL    HW1 1217   2.113   1.383   0.167 -0.6776 -0.0070  0.0786
  361SOL    HW2 1218   2.072   1.380   0.313 -0.0848  0.2914  0.2553
  362SOL     OW 1219   0.031   1.546   1.281 -0.5473 -0.0493  0.6697
  362SOL    HW1 1220   0.092   1.481   1.316 -0.3060 -1.4334 -2.0525
  362SOL    HW2 1221  -0.053   1.502   1.280 -0.5460 -0.0614 -0.4050
  363SOL     OW 1222   1.363   3.458   3.630 -0.3288  0.1058  0.3238
  363SOL    HW1 1223   1.355   3.549   3.603  0.4031  0.2479  0.5668
  363SOL    HW2 1224   1.344   3.408   3.551  0.0014  0.4880 -0.0044
  364SOL     OW 1225   1.638   1.658   1.086 -0.0778  0.0993 -0.3042
  364SOL    HW1 1226   1.680   1.724   1.031 -2.2694  0.6914 -1.3972
  364SOL    HW2 1227   1.667   1.574   1.051  1.9583  0.4425  0.4621
  365SOL     OW 1228   0.520   0.465   1.442  0.0713 -0.1898  0.0590
  365SOL    HW1 1229   0.535   0.371   1.445 -0.6450 -0.3572 -0.9131
  365SOL    HW2 1230   0.425   0.473   1.431  0.2001  0.6198 -0.5304
  366SOL     OW 1231   1.399   3.490   3.268  0.2440  0.1598 -0.1547
  366SOL    HW1 1232   1.367   3.554   3.205 -1.5997  1.2745  1.7661
  366SOL    HW2 1233   1.321   3.440   3.293  0.2617  1.5655  3.1824
  367SOL     OW 1234   2.340   2.894   0.701  0.4594 -0.9090 -0.8032
  367SOL    HW1 1235   2.276   2.954   0.664 -0.3827 -1.7085 -0.6989
  367SOL    HW2 1236   2.319   2.809   0.662  1.9318 -1.0612 -1.3271
  368SOL     OW 1237   1.109   2.357   2.263 -0.1420  0.4747  0.0929
  368SOL    HW1 1238   1.186   2.305   2.240  0.8765  1.2747  1.5697
  368SOL    HW2 1239   1.040   2.292   2.280  0.7981 -0.3622  0.8069
  369SOL     OW 1240   2.979   0.519   3.284 -0.3229  0.1452 -0.3959
  369SOL    HW1 1241   2.973   0.601   3.333  1.4163  1.7664 -2.7010
  369SOL    HW2 1242   2.899   0.516   3.232 -0.5560  0.1568 -0.0472
  370SOL     OW 1243   1.938   1.991   3.045  0.2722 -0.0476 -0.1987
  370SOL    HW1 1244   2.027   1.965   3.020  0.7896  0.1669  1.2914
  370SOL    HW2 1245   1.937   2.086   3.036  1.4427  0.4318  3.1913
  371SOL     OW 1246   1.676   2.887   0.295 -0.1017 -0.4108  0.0593
  371SOL    HW1 1247   1.719   2.835   0.227  2.9172  0.7716  0.9181
  371SOL    HW2 1248   1.693   2.978   0.270 -1.2819  0.0881  0.9903
  372SOL     OW 1249   1.721   2.767   3.630 -0.5715  0.1129  0.1808
  372SOL    HW1 1250   1.780   2.762   3.555 -1.2428 -1.4346 -0.2968
  372SOL    HW2 1251   1.779   2.778   3.706  0.4676 -2.3300 -0.1599
  373SOL     OW 1252   3.515   2.501   3.419 -0.3755  1.0444  0.1224
  373SOL    HW1 1253   3.475   2.579   3.458 -0.2336  1.1237  0.1083
  373SOL    HW2 1254   3.588   2.480   3.477 -0.4934  0.8441  0.1990
  374SOL     OW 1255   0.116   0.236   2.764 -0.1648 -0.1365  0.3917
  374SOL    HW1 1256   0.034   0.189   2.776  0.2138 -1.3019 -1.2406
  374SOL    HW2 1257   0.132   0.234   2.670  1.0077  1.3721  0.5131
  375SOL     OW 1258   3.181   3.424   2.926 -0.3895  0.7741  0.2015
  375SOL    HW1 1259   3.214   3.337   2.948 -2.6115  0.0625  0.9862
  375SOL    HW2 1260   3.253   3.465   2.877 -0.0979 -2.3613 -2.3719
  376SOL     OW 1261   2.586   2.303   0.939  0.2103  0.3648  1.1772
  376SOL    HW1 1262   2.592   2.208   0.950  0.8113  0.3761  1.0118
  376SOL    HW2 1263   2.508   2.329   0.988 -1.2805 -0.4934 -0.6435
  377SOL     OW 1264   1.242   1.213   3.355  0.3751  0.6228 -0.3749
  377SOL    HW1 1265   1.195   1.284   3.313 -2.4313 -1.4427 -1.0005
  377SOL    HW2 1266   1.230   1.138   3.296  3.9581 -0.2677 -0.2224
  378SOL     OW 1267   0.596   1.543   1.171  0.4468  0.8182 -0.2976
  378SOL    HW1 1268   0.652   1.619   1.161 -0.3874  1.7225  1.3609
  378SOL    HW2 1269   0.514   1.578   1.206  0.6847 -0.9516  2.4183
  379SOL     OW 1270   1.893   3.074   2.321 -0.3514  0.3331  0.1088
  379SOL    HW1 1271   1.845   3.019   2.383  1.5528 -0.7257  0.7259
  379SOL    HW2 1272   1.887   3.162   2.357 -0.9872  0.0581  0.6952
  380SOL     OW 1273   0.859   3.281   0.253 -0.0336 -0.0166  0.1000
  380SOL    HW1 1274   0.801   3.264   0.178 -0.2652 -2.5789  0.7565
  380SOL    HW2 1275   0.800   3.301   0.325  0.0959  0.6122  0.0374
  381SOL     OW 1276   1.748   0.611   1.445 -0.1124 -0.1025  0.3535
  381SOL    HW1 1277   1.682   0.676   1.420  1.2528  2.3141  2.4438
  381SOL    HW2 1278   1.729   0.594   1.538  0.6835 -1.2883  0.3090
  382SOL     OW 1279   1.702   1.400   1.015  0.2866 -0.2057 -0.3806
  382SOL    HW1 1280   1.612   1.373   1.033  0.3774  0.6158  1.6670
  382SOL    HW2 1281   1.742   1.325   0.972 -0.8238 -1.3900  0.5601
  383SOL     OW 1282   0.339   2.954   2.996  0.4172 -0.0605 -0.2957
  383SOL    HW1 1283   0.257   2.999   3.021  0.7819 -0.5505  2.0671
  383SOL    HW2 1284   0.316   2.861   2.996  0.3833 -0.0747 -2.2152
  384SOL     OW 1285   2.301   0.449   0.142 -0.3662  0.1762 -0.5016
  384SOL    HW1 1286   2.374   0.389   0.125  0.4326  1.5671 -2.3409
  384SOL    HW2 1287   2.223   0.399   0.119 -0.0262 -1.2117  1.1449
  385SOL     OW 1288   3.137   0.096   3.248 -0.1277 -0.0496  0.6867
  385SOL    HW1 1289   3.156   0.183   3.214 -0.1358 -0.3243 -0.0401
  385SOL    HW2 1290   3.047   0.102   3.282 -0.7673 -0.2122 -0.9000
  386SOL     OW 1291   0.648   1.105   0.980  0.3670  0.5470 -0.7372
  386SOL    HW1 1292   0.697   1.023   0.973 -0.6840  0.0034 -2.1489
  386SOL    HW2 1293   0.714   1.173   0.965  0.9026 -0.1272 -1.5740
  387SOL     OW 1294   0.648   2.786   1.046  0.5919 -0.0114  0.3543
  387SOL    HW1 1295   0.673   2.878   1.033  0.3534  0.1800  1.2050
  387SOL    HW2 1296   0.559   2.791   1.080  0.5105 -0.5722  0.2225
  388SOL     OW 1297   2.395   0.760   1.206 -0.2257  0.4273 -0.0023
  388SOL    HW1 1298   2.352   0.675   1.195  1.7654 -0.4622 -1.7951
  388SOL    HW2 1299   2.427   0.759   1.296  1.4956 -1.6912 -0.5421
  389SOL     OW 1300   1.681   1.891   2.670 -0.4138 -0.0306 -0.0527
  389SOL    HW1 1301   1.719   1.974   2.700 -1.5652  0.4746  0.0739
  389SOL    HW2 1302   1.628   1.861   2.744 -1.0642 -0.2014 -0.5787
  390SOL     OW 1303   1.442   3.090   1.558  0.3641  0.0843  0.2937
  390SOL    HW1 1304   1.521   3.047   1.592  1.8049  0.3485 -2.4187
  390SOL    HW2 1305   1.374   3.023   1.562  1.1561 -0.7071  1.1054
  391SOL     OW 1306   3.250   1.585   1.963  0.4507  0.4130 -0.7095
  391SOL    HW1 1307   3.174   1.531   1.987  1.7143 -0.4203  1.8128
  391SOL    HW2 1308   3.264   1.567   1.870 -1.6548 -0.3705 -0.9362
  392SOL     OW 1309   0.529   3.531   0.414 -0.2356 -0.3654  0.2853
  392SOL    HW1 1310   0.614   3.489   0.419 -0.7210 -1.2635  2.1006
  392SOL    HW2 1311   0.513   3.543   0.321  0.7971 -2.4403 -0.2250
  393SOL     OW 1312   1.013   2.578   2.610  0.4502  0.4309  0.2640
  393SOL    HW1 1313   0.920   2.593   2.594 -0.2859 -1.6500  2.0677
  393SOL    HW2 1314   1.031   2.621   2.693  1.0762  0.6628  0.0195
  394SOL     OW 1315   2.236   1.299   2.382  0.2626 -0.2579  0.3151
  394SOL    HW1 1316   2.228   1.206   2.359  1.1869 -0.4162  0.5767
  394SOL    HW2 1317   2.280   1.337   2.306 -0.4239  0.0409  0.0614
  395SOL     OW 1318   0.567   0.691   3.509  0.0300  0.5537  0.2930
  395SOL    HW1 1319   0.546   0.784   3.517 -1.9745  0.0769  1.2680
  395SOL    HW2 1320   0.634   0.676   3.575  0.3923  1.3126  0.1083
  396SOL     OW 1321   2.684   3.492   2.107 -0.3355  0.2432  0.4137
  396SOL    HW1 1322   2.670   3.473   2.014  1.7752 -0.1380  0.1361
  396SOL    HW2 1323   2.769   3.453   2.127  0.8453  3.1706  1.6640
  397SOL     OW 1324   0.503   1.208   3.135 -0.3558 -0.0798 -0.1987
  397SOL    HW1 1325   0.584   1.235   3.092 -0.0961 -1.5528 -0.6893
  397SOL    HW2 1326   0.435   1.263   3.097  0.3412  0.8318 -0.1410
  398SOL     OW 1327   0.727   3.079   2.447  0.1285 -0.2864  0.2298
  398SOL    HW1 1328   0.804   3.132   2.427  0.8159 -1.1724  0.4678
  398SOL    HW2 1329   0.653   3.140   2.438  1.0099  1.2504  2.3727
  399SOL     OW 1330   2.814   2.512   3.084  0.7000  0.7844 -0.3421
  399SOL    HW1 1331   2.767   2.580   3.133  0.2243 -0.0376  0.3562
  399SOL    HW2 1332   2.834   2.445   3.149 -0.2172 -0.4822 -1.3199
  400SOL     OW 1333   3.055   1.174   0.282 -0.1406 -0.0994 -0.1298
  400SOL    HW1 1334   3.081   1.138   0.367  0.2768  1.7658  0.5834
  400SOL    HW2 1335   3.019   1.261   0.303  0.3356  0.5562 -1.8975
  401SOL     OW 1336   3.391  -0.019   0.661 -0.1393 -0.2844  0.5921
  401SOL    HW1 1337   3.385   0.035   0.582  1.4824  0.7798  1.1546
  401SOL    HW2 1338   3.362   0.040   0.731 -0.1372 -0.7546  0.9895
  402SOL     OW 1339   0.549   2.989   0.466 -0.4651 -0.4173  0.2702
  402SOL    HW1 1340   0.525   3.081   0.461 -0.6639 -0.4744  0.1463
  402SOL    HW2 1341   0.574   2.975   0.557  0.6901  0.0328  0.0324
  403SOL     OW 1342   1.631   0.662   3.055 -0.2555 -0.1133  0.4013
  403SOL    HW1 1343   1.681   0.739   3.028 -0.0714 -1.2487 -2.8107
  403SOL    HW2 1344   1.691   0.614   3.111  0.9550  0.3225 -0.4761
  404SOL     OW 1345   3.471   0.601   0.028  0.2846  0.2589 -0.1571
  404SOL    HW1 1346   3.393   0.628  -0.019 -0.6781  3.1698  2.7878
  404SOL    HW2 1347   3.536   0.668   0.008  0.3587  0.6600  1.2985
  405SOL     OW 1348   1.753   3.491   2.643 -0.2030 -0.3370  0.6152
  405SOL    HW1 1349   1.728   3.514   2.554 -3.2666 -2.1634  0.8283
  405SOL    HW2 1350   1.738   3.571   2.694 -2.3386 -0.3296  0.0658
  406SOL     OW 1351   0.602   0.731   1.218  0.2573 -0.1676 -0.4397
  406SOL    HW1 1352   0.623   0.824   1.221 -1.2825  0.1907 -0.0124
  406SOL    HW2 1353   0.506   0.727   1.220  0.2925 -1.7766  0.2058
  407SOL     OW 1354   2.611   1.852   3.252  0.4893 -0.7422 -0.6063
  407SOL    HW1 1355   2.641   1.828   3.340  0.7395  1.6717  0.0265
  407SOL    HW2 1356   2.518   1.872   3.262  0.7421  0.5346 -0.6375
  408SOL     OW 1357   3.217   1.516   2.848  0.2444 -0.4393 -0.6617
  408SOL    HW1 1358   3.177   1.575   2.913 -2.5289 -3.9319  1.1561
  408SOL    HW2 1359   3.182   1.547   2.764  0.0691  1.3660  0.0308
  409SOL     OW 1360   1.556   2.710   3.428  0.0099  0.1309  0.2817
  409SOL    HW1 1361   1.494   2.640   3.447  0.6143 -0.4276  0.2157
  409SOL    HW2 1362   1.605   2.722   3.510  0.9002 -0.5367 -0.1380
  410SOL     OW 1363   0.839   3.213   0.608 -0.3122  0.5516  0.5021
  410SOL    HW1 1364   0.763   3.227   0.665 -0.1119  1.5595  0.5281
  410SOL    HW2 1365   0.894   3.151   0.656 -0.4078  0.9741  1.1625
  411SOL     OW 1366   2.075   2.532   2.397  0.3615 -0.1118  0.4341
  411SOL    HW1 1367   2.029   2.457   2.360 -2.5046  0.9211  1.5948
  411SOL    HW2 1368   2.072   2.599   2.329  1.9896 -0.6404 -0.2101
  412SOL     OW 1369   3.473   2.006   1.553 -0.0795 -0.6317 -0.0363
  412SOL    HW1 1370   3.405   2.042   1.609  1.4069  1.1381  0.7124
  412SOL    HW2 1371   3.487   1.917   1.586 -1.8195 -0.9452 -0.0681
  413SOL     OW 1372   2.259   1.685   2.879  0.0460 -0.7614  0.0506
  413SOL    HW1 1373   2.355   1.677   2.882 -0.0171 -1.2804  1.9533
  413SOL    HW2 1374   2.227   1.603   2.918 -1.2343 -1.1797 -1.7373
  414SOL     OW 1375   2.228   0.518   2.323 -0.1813  0.1232 -0.0352
  414SOL    HW1 1376   2.284   0.453   2.368 -1.0683 -0.4668  0.2356
  414SOL    HW2 1377   2.290   0.584   2.291  0.5346  0.2470  1.5266
  415SOL     OW 1378   1.777   2.461   2.071  0.2786 -0.2957  0.7398
  415SOL    HW1 1379   1.718   2.535   2.056 -0.1846 -0.8764 -0.4349
  415SOL    HW2 1380   1.734   2.410   2.140 -0.7732 -0.8446 -0.2662
  416SOL     OW 1381   0.393   0.103   1.152  0.2091  0.0292 -0.1196
  416SOL    HW1 1382   0.484   0.133   1.162  0.8812 -1.6164 -0.8942
  416SOL    HW2 1383   0.401   0.019   1.108 -1.7149 -0.1881 -0.1135
  417SOL     OW 1384   0.358   2.582   3.631 -0.1199  0.0951 -0.3475
  417SOL    HW1 1385   0.282   2.523   3.625  0.6062 -0.8401 -0.7293
  417SOL    HW2 1386   0.336   2.644   3.700 -1.0877 -0.3738 -0.2219
  418SOL     OW 1387   3.142   0.453   1.680  0.2906 -0.0606  0.5766
  418SOL    HW1 1388   3.180   0.526   1.631 -0.5820  0.7783  1.1114
  418SOL    HW2 1389   3.218   0.402   1.710  0.8591 -0.1050 -0.8780
  419SOL     OW 1390   0.687   1.788   1.137  0.0157 -0.3176  0.0153
  419SOL    HW1 1391   0.775   1.819   1.115 -0.2397  0.4849  0.0845
  419SOL    HW2 1392   0.670   1.824   1.224 -0.3373 -0.5494  0.0440
  420SOL     OW 1393   3.195   1.332   1.767 -0.4424 -0.2666 -0.4596
  420SOL    HW1 1394   3.278   1.316   1.811 -0.2386  1.8148  0.0300
  420SOL    HW2 1395   3.133   1.274   1.811  0.2889 -0.1079  0.8450
  421SOL     OW 1396   1.372   1.232   2.586 -0.0130  0.3606 -0.5344
  421SOL    HW1 1397   1.421   1.245   2.505 -0.4963  0.0586 -0.8854
  421SOL    HW2 1398   1.311   1.306   2.589 -1.0539 -0.4467 -1.2498
  422SOL     OW 1399   0.480   3.019   1.895  0.5526  0.0668  0.2504
  422SOL    HW1 1400   0.433   2.970   1.962  0.9164  0.5049  0.8249
  422SOL    HW2 1401   0.506   2.952   1.831 -1.8175 -0.0516 -0.7012
  423SOL     OW 1402   0.508   1.989   1.243  0.0443 -0.2398 -0.1546
  423SOL    HW1 1403   0.493   1.952   1.156  1.0233 -0.0674 -0.4139
  423SOL    HW2 1404   0.421   1.999   1.281 -0.3264 -1.4138 -0.6562
  424SOL     OW 1405   3.530   0.572   2.652 -0.3192 -0.5854 -0.4103
  424SOL    HW1 1406   3.501   0.662   2.667 -1.9406 -1.3884  1.9810
  424SOL    HW2 1407   3.567   0.573   2.563  4.2120  3.4347  1.0784
  425SOL     OW 1408   3.064   3.118   1.539  0.6473 -0.5064  0.8673
  425SOL    HW1 1409   2.996   3.184   1.555  2.0835  0.6744  2.4431
  425SOL    HW2 1410   3.090   3.132   1.448 -2.0858 -1.9163 -0.2758
  426SOL     OW 1411   0.540   1.729   2.896  0.0271  0.5986  0.0670
  426SOL    HW1 1412   0.587   1.649   2.871  1.2574  1.1670  0.4489
  426SOL    HW2 1413   0.544   1.730   2.991 -1.0460  0.5090  0.1174
  427SOL     OW 1414   2.863   2.190   3.382 -0.2737 -0.3202 -0.0926
  427SOL    HW1 1415   2.922   2.116   3.368  0.8549  0.2685  1.2941
  427SOL    HW2 1416   2.839   2.185   3.475 -0.7331  0.6519 -0.1441
  428SOL     OW 1417   0.830   1.024   3.634  0.1129 -0.0773 -0.6599
  428SOL    HW1 1418   0.816   0.972   3.713 -0.4402  1.6221  0.4018
  428SOL    HW2 1419   0.914   0.993   3.600  2.3341  1.6448  2.6963
  429SOL     OW 1420   2.787   2.679   3.478 -0.0475 -0.2485  0.1431
  429SOL    HW1 1421   2.810   2.604   3.423  1.2789 -0.7359  1.2875
  429SOL    HW2 1422   2.864   2.693   3.533 -1.6795 -0.5610  2.6999
  430SOL     OW 1423   1.666   3.077   0.948 -0.1514 -0.4121 -0.5835
  430SOL    HW1 1424   1.707   3.086   0.862 -2.3347  0.1138 -1.6392
  430SOL    HW2 1425   1.712   3.140   1.004 -0.4046  1.1600 -2.0758
  431SOL     OW 1426   0.302   1.161   1.668  0.1397 -0.1605  0.3273
  431SOL    HW1 1427   0.208   1.169   1.683 -0.3508 -0.5568 -2.0976
  431SOL    HW2 1428   0.340   1.154   1.755 -2.0102  0.5974  1.3933
  432SOL     OW 1429   0.188   0.917   3.407 -0.3315 -0.4376 -0.3125
  432SOL    HW1 1430   0.272   0.960   3.392  0.5429 -2.7562 -2.7188
  432SOL    HW2 1431   0.133   0.986   3.446  1.0587  2.7525 -3.4132
  433SOL     OW 1432   0.060   1.296   0.587  0.6940 -0.0524  0.0127
  433SOL    HW1 1433   0.139   1.258   0.626  0.0771 -0.8335  0.5182
  433SOL    HW2 1434   0.079   1.390   0.583  0.2716  0.3179  3.5158
  434SOL     OW 1435   2.269   0.685   3.624  0.6840  0.1475  0.4171
  434SOL    HW1 1436   2.232   0.666   3.538 -0.5458  2.2579  0.3916
  434SOL    HW2 1437   2.320   0.608   3.647 -0.8304 -1.4164 -1.1987
  435SOL     OW 1438   2.886   1.798   3.227  0.1876  0.0631  0.5513
  435SOL    HW1 1439   2.802   1.844   3.228  0.1410  0.0758 -0.9726
  435SOL    HW2 1440   2.949   1.864   3.199 -0.0762 -0.9293 -2.9535
  436SOL     OW 1441   0.614   2.082   0.543  0.2154  0.1084 -0.3967
  436SOL    HW1 1442   0.667   2.159   0.566  0.2329  0.3270 -1.1671
  436SOL    HW2 1443   0.572   2.058   0.626  1.3359  0.0669  0.1809
  437SOL     OW 1444   0.977   2.721   0.758  1.2909 -0.0070  0.2034
  437SOL    HW1 1445   1.010   2.717   0.668  2.9118  1.6628  0.6636
  437SOL    HW2 1446   1.051   2.752   0.810 -0.1191  0.7958  1.8441
  438SOL     OW 1447   2.161   3.048   3.381  0.2117 -0.0738 -0.2536
  438SOL    HW1 1448   2.256   3.047   3.396  0.0732  1.6843  1.0259
  438SOL    HW2 1449   2.152   3.063   3.287  1.2265  0.8946 -0.2181
  439SOL     OW 1450   2.237   0.164   2.648  0.1609 -0.2063  0.1520
  439SOL    HW1 1451   2.162   0.223   2.635  0.7990  0.7892  0.8388
  439SOL    HW2 1452   2.225   0.095   2.583 -1.3592 -0.0712  0.2633
  440SOL     OW 1453   3.469   0.800   2.122  0.0464 -0.5300  0.4158
  440SOL    HW1 1454   3.418   0.815   2.042  0.3707 -0.6168  0.1905
  440SOL    HW2 1455   3.486   0.888   2.155  0.9394 -0.4229 -0.2711
  441SOL     OW 1456   0.032   3.116   1.878  0.0618 -0.6523 -0.3313
  441SOL    HW1 1457   0.073   3.031   1.891 -0.6629 -0.6561  2.5468
  441SOL    HW2 1458   0.061   3.169   1.953 -0.5304  1.2251 -1.3556
  442SOL     OW 1459   0.982   1.838   0.377 -0.0152 -0.1510  0.0087
  442SOL    HW1 1460   0.898   1.802   0.406  0.0876  0.5202  1.2025
  442SOL    HW2 1461   0.962   1.879   0.293 -0.8486 -0.1452  0.1940
  443SOL     OW 1462   1.447   1.613   1.315  0.2032 -0.0989 -0.6482
  443SOL    HW1 1463   1.484   1.633   1.229  3.7213 -2.6175  0.0428
  443SOL    HW2 1464   1.426   1.698   1.353  2.2531  1.3573 -2.5366
  444SOL     OW 1465   3.008   3.128   3.096 -0.1168  0.3881  0.0821
  444SOL    HW1 1466   2.990   3.034   3.097 -1.7317  0.5860 -2.0121
  444SOL    HW2 1467   2.922   3.169   3.108  0.3308  1.5692 -0.5420
  445SOL     OW 1468   2.279   3.353   1.759  0.5682 -0.2545 -0.2194
  445SOL    HW1 1469   2.286   3.277   1.701 -0.4688 -0.5838  0.0734
  445SOL    HW2 1470   2.187   3.354   1.786  0.6252  0.9617 -0.0267
  446SOL     OW 1471   1.461   0.962   2.655  0.2088 -0.5582 -0.9616
  446SOL    HW1 1472   1.439   1.053   2.634 -0.9469 -0.5612  0.1518
  446SOL    HW2 1473   1.540   0.969   2.710  0.4200 -0.2721 -1.2937
  447SOL     OW 1474   0.878   0.669   2.679  0.9109 -0.2073 -0.3151
  447SOL    HW1 1475   0.819   0.707   2.745  0.5622  0.9342 -1.2368
  447SOL    HW2 1476   0.879   0.575   2.698  1.2513  0.1526  1.6313
  448SOL     OW 1477   3.625   3.541   1.889  0.6439  0.0922 -0.0098
  448SOL    HW1 1478   3.632   3.616   1.948  0.5718  0.1103 -0.0242
  448SOL    HW2 1479   3.586   3.576   1.809  0.0448 -0.0758  0.2017
  449SOL     OW 1480   3.095   0.533   0.426 -0.0951  0.3996  0.1053
  449SOL    HW1 1481   3.065   0.608   0.375  2.8410  2.1502  0.6859
  449SOL    HW2 1482   3.086   0.560   0.517 -0.2873 -0.5361  0.3745
  450SOL     OW 1483   1.414   3.006   1.237  0.2868  0.0752 -0.4048
  450SOL    HW1 1484   1.369   3.026   1.155  1.1128  1.1513 -0.6179
  450SOL    HW2 1485   1.356   3.040   1.305  0.2557  0.4713 -0.6241
  451SOL     OW 1486   0.070   1.171   3.613  0.4149  0.1170  0.3630
  451SOL    HW1 1487  -0.014   1.146   3.652  0.2941  0.7490  0.5309
  451SOL    HW2 1488   0.098   1.246   3.665  0.9866  0.0357  0.1735
  452SOL     OW 1489   2.196   0.905   2.533 -0.0148  0.1008 -0.6277
  452SOL    HW1 1490   2.257   0.976   2.513 -0.4430  1.2745  1.9676
  452SOL    HW2 1491   2.120   0.947   2.573  0.1403 -1.8114  1.9616
  453SOL     OW 1492   1.937   0.625   2.573 -0.0517 -0.6439  0.1860
  453SOL    HW1 1493   1.971   0.715   2.577 -1.1379 -0.2555  1.2216
  453SOL    HW2 1494   1.883   0.624   2.494  4.2197 -2.0377 -3.1383
  454SOL     OW 1495   0.581   0.005   2.808 -0.0210 -0.2743  0.4041
  454SOL    HW1 1496   0.515  -0.017   2.742 -1.0213  3.0401  0.0990
  454SOL    HW2 1497   0.532   0.020   2.888  0.7451 -0.6744  0.9605
  455SOL     OW 1498   2.025   3.257   3.504  0.2996  0.2488 -0.6221
  455SOL    HW1 1499   2.072   3.198   3.445  1.7919  0.6854  0.1040
  455SOL    HW2 1500   2.089   3.284   3.569 -1.7602 -1.8245  2.5298
  456SOL     OW 1501   3.272   3.334   1.424  0.0040 -0.2454 -0.0281
  456SOL    HW1 1502   3.285   3.241   1.443 -1.0868 -0.1429  1.3752
  456SOL    HW2 1503   3.307   3.345   1.336 -1.6725 -2.4171 -1.0631
  457SOL     OW 1504   2.928   2.531   0.785 -0.1707  0.5721  0.7148
  457SOL    HW1 1505   2.837   2.560   0.780 -0.3104  0.5727  2.6607
  457SOL    HW2 1506   2.937   2.469   0.712 -0.9807  2.4033 -1.0669
  458SOL     OW 1507   0.714   1.331   2.217 -0.4963  0.2293  0.3119
  458SOL    HW1 1508   0.632   1.306   2.260 -1.5692  1.1072 -1.1249
  458SOL    HW2 1509   0.687   1.395   2.150  0.9958 -1.3323 -1.9181
  459SOL     OW 1510   3.608   1.430   0.218  0.7452  0.0986 -0.3517
  459SOL    HW1 1511   3.561   1.490   0.276 -0.7656 -1.3505 -0.0175
  459SOL    HW2 1512   3.589   1.343   0.252  3.3981 -0.6123 -0.4398
  460SOL     OW 1513   2.097   2.542   1.144 -0.4011  0.4789  0.0268
  460SOL    HW1 1514   2.068   2.581   1.062  0.2913 -0.0637 -0.4906
  460SOL    HW2 1515   2.188   2.517   1.127 -1.0538 -2.1197  0.0328
  461SOL     OW 1516   2.744   2.862   3.280 -0.5539  0.5904 -0.5580
  461SOL    HW1 1517   2.752   2.776   3.320 -0.1721  0.3000 -1.2331
  461SOL    HW2 1518   2.673   2.905   3.328 -1.0549 -0.2716 -0.5162
  462SOL     OW 1519   0.018   1.579   0.802  0.5710 -0.1664  0.0256
  462SOL    HW1 1520   0.075   1.558   0.727  1.8987 -1.2280  1.2735
  462SOL    HW2 1521   0.055   1.529   0.875 -1.4263 -0.1373  1.1265
  463SOL     OW 1522   3.498   1.810   1.790 -0.5276  0.0929  0.8261
  463SOL    HW1 1523   3.555   1.735   1.774  0.7286  1.1753  0.0321
  463SOL    HW2 1524   3.493   1.817   1.885  0.3628 -0.2389  0.8999
  464SOL     OW 1525   1.457   1.578   2.693  0.3530 -0.1272 -0.1673
  464SOL    HW1 1526   1.463   1.657   2.639  1.4884  0.5941  0.9537
  464SOL    HW2 1527   1.404   1.604   2.768  0.2695 -0.5991 -0.0583
  465SOL     OW 1528   0.445   1.359   2.453  0.2118 -0.1145 -0.0645
  465SOL    HW1 1529   0.477   1.289   2.397  2.2491  0.9198 -0.2861
  465SOL    HW2 1530   0.382   1.316   2.512 -0.8556 -1.4991 -2.1021
  466SOL     OW 1531   2.663   0.978   0.742  0.7421 -0.3732  0.3461
  466SOL    HW1 1532   2.739   1.022   0.778  0.4419  0.5039 -0.0617
  466SOL    HW2 1533   2.617   0.943   0.819  0.2915  1.1676  0.8176
  467SOL     OW 1534   0.542   0.758   2.599  0.2747  0.3956 -0.4750
  467SOL    HW1 1535   0.544   0.670   2.563  2.4490 -0.2445  1.0210
  467SOL    HW2 1536   0.552   0.815   2.523  2.5660 -0.8204 -1.1781
  468SOL     OW 1537   1.418   3.179   0.169 -0.7278  0.1793 -0.1664
  468SOL    HW1 1538   1.371   3.111   0.121  0.2003 -0.7038  0.1450
  468SOL    HW2 1539   1.476   3.218   0.103  2.1572 -2.4811  0.5465
  469SOL     OW 1540   3.013   3.459   2.637 -0.1637  0.1741  0.0236
  469SOL    HW1 1541   3.037   3.546   2.670  0.3423  0.2653 -0.5587
  469SOL    HW2 1542   3.023   3.401   2.713  0.0485  0.5363  0.2754
  470SOL     OW 1543   1.948   2.401   1.621  0.3397 -0.2093 -0.1363
  470SOL    HW1 1544   1.952   2.480   1.675 -1.2240 -0.9486  1.1319
  470SOL    HW2 1545   1.931   2.434   1.533 -2.2757  0.8758  0.6620
  471SOL     OW 1546   0.232   3.000   3.442 -0.3591 -0.4015  0.1776
  471SOL    HW1 1547   0.221   3.072   3.503 -1.1989  0.3053 -0.7604
  471SOL    HW2 1548   0.197   2.924   3.488  1.2548 -0.3984  1.4709
  472SOL     OW 1549   2.128   1.467   1.882 -0.1086 -0.0130 -0.4202
  472SOL    HW1 1550   2.160   1.439   1.967 -1.1079 -1.5296 -0.5051
  472SOL    HW2 1551   2.178   1.416   1.818 -0.5341 -0.1402 -0.6629
  473SOL     OW 1552   3.300   2.404   1.889  0.2888 -0.0965  0.2966
  473SOL    HW1 1553   3.361   2.475   1.870  0.8712 -1.4444 -3.8350
  473SOL    HW2 1554   3.341   2.356   1.961  1.7322  1.6511  0.7081
  474SOL     OW 1555   1.106   3.142   2.807  0.6514 -0.1362 -0.0422
  474SOL    HW1 1556   1.201   3.144   2.800  0.7204 -1.7687  0.1689
  474SOL    HW2 1557   1.089   3.135   2.901  0.2366  1.9840  0.1011
  475SOL     OW 1558   0.438   0.315   2.753  0.1870  0.2318 -0.4161
  475SOL    HW1 1559   0.509   0.257   2.780  0.9155  0.2977 -2.1215
  475SOL    HW2 1560   0.358   0.266   2.775  0.7659 -0.5164  0.0728
  476SOL     OW 1561   0.145   0.230   1.935 -0.4305 -0.0028 -0.2880
  476SOL    HW1 1562   0.114   0.158   1.989 -1.0319  0.2085 -0.3419
  476SOL    HW2 1563   0.165   0.300   1.998  1.7250 -0.7352 -0.0764
  477SOL     OW 1564   0.164   2.750   1.038  0.6525 -0.0929  1.2985
  477SOL    HW1 1565   0.175   2.843   1.059  0.9952 -0.4171  2.6387
  477SOL    HW2 1566   0.103   2.717   1.104  0.5275 -0.8227  0.8327
  478SOL     OW 1567   1.164   2.476   0.011  0.4220  0.5697 -0.4189
  478SOL    HW1 1568   1.171   2.417   0.086  0.4438 -0.2409 -1.0409
  478SOL    HW2 1569   1.118   2.424  -0.055 -2.0536  2.1360 -0.0781
  479SOL     OW 1570   2.548   3.184   2.313  0.7045 -0.2145  0.0422
  479SOL    HW1 1571   2.468   3.191   2.261  0.2305  0.7223  0.8714
  479SOL    HW2 1572   2.618   3.193   2.249  0.2277 -2.8059 -0.9608
  480SOL     OW 1573   3.650   1.579   1.825 -0.5493  0.5516  0.1298
  480SOL    HW1 1574   3.741   1.574   1.794 -1.3006  2.2268 -2.7495
  480SOL    HW2 1575   3.658   1.594   1.919  2.1128 -0.3440  0.1340
  481SOL     OW 1576   3.571   0.849   3.385  0.9422 -0.4959  0.0404
  481SOL    HW1 1577   3.519   0.806   3.317 -1.1186  0.3362  1.0062
  481SOL    HW2 1578   3.591   0.935   3.349  0.4207 -0.3022  0.1988
  482SOL     OW 1579   0.552   2.656   2.463 -0.1397  0.0724 -0.2620
  482SOL    HW1 1580   0.568   2.640   2.556  1.4578 -1.7810 -0.7942
  482SOL    HW2 1581   0.537   2.750   2.457 -2.6580 -0.0674  2.1508
  483SOL     OW 1582   2.756   1.558   1.283 -0.1120 -0.8935 -0.3587
  483SOL    HW1 1583   2.775   1.647   1.315 -0.3679 -1.2884  0.9463
  483SOL    HW2 1584   2.662   1.559   1.265  0.0166 -0.6964 -1.0361
  484SOL     OW 1585   1.991   1.591   1.112  0.6083 -0.9236  0.0233
  484SOL    HW1 1586   1.963   1.655   1.177  0.3829 -1.9056  0.9382
  484SOL    HW2 1587   2.033   1.642   1.044 -0.3597  0.2736  0.2869
  485SOL     OW 1588   2.418   3.628   0.731  0.0659 -0.1856  0.6490
  485SOL    HW1 1589   2.419   3.557   0.795 -1.9161  0.1313  1.0932
  485SOL    HW2 1590   2.439   3.584   0.648  0.9764 -0.8870  1.2215
  486SOL     OW 1591   0.754   0.966   0.724 -0.3811 -0.1113  0.2772
  486SOL    HW1 1592   0.770   0.974   0.630 -0.0448 -1.6331  0.1862
  486SOL    HW2 1593   0.659   0.954   0.731 -0.3051 -0.8368  0.0674
  487SOL     OW 1594   2.128   2.997   0.184 -1.1490  0.2424  0.4522
  487SOL    HW1 1595   2.076   2.964   0.111  0.8167 -1.2646 -0.3358
  487SOL    HW2 1596   2.186   3.062   0.144  0.9856 -1.6547  0.2744
  488SOL     OW 1597   0.625   1.918   1.474  0.0811  0.5616  0.0072
  488SOL    HW1 1598   0.602   1.972   1.398 -0.4974  0.9951  0.4864
  488SOL    HW2 1599   0.589   1.964   1.549  1.8416  0.8689  0.7316
  489SOL     OW 1600   1.420   2.803   0.169 -0.0422  0.1508 -0.1884
  489SOL    HW1 1601   1.385   2.854   0.096 -0.2422  0.3307  0.0340
  489SOL    HW2 1602   1.508   2.838   0.182 -0.0629  0.2238 -0.2435
  490SOL     OW 1603   2.684   1.349   3.063 -0.4086 -0.2264  0.1034
  490SOL    HW1 1604   2.735   1.269   3.056  0.5303  0.0147  2.9539
  490SOL    HW2 1605   2.594   1.319   3.074 -0.1821 -0.8653  0.2669
  491SOL     OW 1606   1.195   3.524   2.852  0.0880  0.5350 -0.0626
  491SOL    HW1 1607   1.125   3.486   2.800 -1.3054  0.4869  1.7324
  491SOL    HW2 1608   1.270   3.529   2.793 -1.4973  0.8517 -2.1412
  492SOL     OW 1609   1.842   0.463   0.901 -0.1910  0.6832  0.2776
  492SOL    HW1 1610   1.897   0.413   0.840 -0.7335  1.8746 -1.2319
  492SOL    HW2 1611   1.827   0.402   0.974  2.4025  0.0070  0.3772
  493SOL     OW 1612   1.953   3.382   2.412 -0.5943 -0.5077  0.1138
  493SOL    HW1 1613   1.927   3.452   2.472 -0.7880 -2.4261  2.4341
  493SOL    HW2 1614   2.034   3.413   2.372 -0.4223  0.8344  1.4357
  494SOL     OW 1615   3.120   2.132   1.416  0.2027  0.1362 -0.4045
  494SOL    HW1 1616   3.151   2.218   1.446  0.3767 -0.5259  1.4554
  494SOL    HW2 1617   3.073   2.096   1.492 -0.4940 -1.1112 -1.3995
  495SOL     OW 1618   0.914   2.574   2.047  0.2691 -0.1127 -0.1513
  495SOL    HW1 1619   0.915   2.670   2.053 -0.0017  0.0073 -1.5867
  495SOL    HW2 1620   1.005   2.548   2.059  0.3825  0.3506 -0.0006
  496SOL     OW 1621   0.980   2.385   3.133 -0.2367  0.2600 -0.3974
  496SOL    HW1 1622   0.927   2.452   3.177 -1.8168  0.5394 -2.5626
  496SOL    HW2 1623   0.917   2.320   3.103  1.0303 -1.0234 -0.3858
  497SOL     OW 1624   2.595   2.452   0.065 -0.6152  0.3363  0.1912
  497SOL    HW1 1625   2.558   2.385   0.122  0.1325 -0.4522 -0.2156
  497SOL    HW2 1626   2.520   2.503   0.034 -1.4268 -1.4091 -0.8867
  498SOL     OW 1627   2.546   2.240   0.228  0.2649  0.2557  0.0183
  498SOL    HW1 1628   2.481   2.273   0.291  0.8757  0.3491  0.6054
  498SOL    HW2 1629   2.529   2.146   0.224 -0.0169  0.3038  0.0446
  499SOL     OW 1630   2.028   2.265   3.138  0.2374  0.1189 -0.1148
  499SOL    HW1 1631   2.046   2.347   3.091  3.3787  0.1099  0.8685
  499SOL    HW2 1632   1.974   2.292   3.212  0.5593  1.1980 -0.2519
  500SOL     OW 1633   2.524   1.863   2.069  0.2671 -0.2560  0.7337
  500SOL    HW1 1634   2.525   1.781   2.119 -1.3615 -0.4716  0.4491
  500SOL    HW2 1635   2.495   1.838   1.982 -0.1106  0.6033  0.6029
  501SOL     OW 1636   3.204   1.745   0.035  0.6851  0.4751 -0.3552
  501SOL    HW1 1637   3.148   1.686   0.085  0.6851  1.0464  0.3403
  501SOL    HW2 1638   3.185   1.832   0.071 -1.4226  1.3463 -3.2501
  502SOL     OW 1639   0.469   0.257   1.951  0.1769 -0.7265 -0.1799
  502SOL    HW1 1640   0.467   0.343   1.908 -2.8429 -1.3938 -1.6686
  502SOL    HW2 1641   0.527   0.205   1.896  1.4927  0.1371  0.3474
  503SOL     OW 1642   2.115   0.352   1.034  0.0661 -0.6014  0.1896
  503SOL    HW1 1643   2.054   0.299   0.983  1.6758 -2.1049 -0.2811
  503SOL    HW2 1644   2.158   0.290   1.092  2.8514 -0.1265 -1.1729
  504SOL     OW 1645   0.547   2.559   2.977 -0.1074  0.0510  0.8459
  504SOL    HW1 1646   0.477   2.598   3.030  0.4496 -0.3227  1.8940
  504SOL    HW2 1647   0.528   2.466   2.977  0.4063 -0.0616  1.1951
  505SOL     OW 1648   3.475   1.403   1.279  0.0831 -0.0004 -0.4590
  505SOL    HW1 1649   3.480   1.427   1.372  0.7305 -2.0963  0.0994
  505SOL    HW2 1650   3.386   1.424   1.253  0.2651  1.8508  0.2468
  506SOL     OW 1651   1.381   2.128   3.645  0.3760  0.5807 -0.2037
  506SOL    HW1 1652   1.359   2.067   3.574 -0.2178  0.6245 -0.0647
  506SOL    HW2 1653   1.412   2.206   3.601 -0.6158  0.8506 -0.4469
  507SOL     OW 1654   2.790   2.069   0.494  0.2368  0.1283 -0.2029
  507SOL    HW1 1655   2.829   2.126   0.428 -1.8613  0.2891 -1.3741
  507SOL    HW2 1656   2.781   2.125   0.572 -0.4517  0.9873 -0.8811
  508SOL     OW 1657   0.669   3.220   0.085  0.5166  0.0862 -0.8524
  508SOL    HW1 1658   0.581   3.243   0.117  0.3916 -1.8170  0.3202
  508SOL    HW2 1659   0.653   3.184  -0.002  0.2051  0.2000 -0.8464
  509SOL     OW 1660   0.854   0.862   0.139 -0.3759 -0.8097  0.4174
  509SOL    HW1 1661   0.894   0.801   0.201 -0.1515  1.3530  2.5521
  509SOL    HW2 1662   0.824   0.935   0.193 -3.0835 -0.2087 -1.6692
  510SOL     OW 1663   1.679   1.812   0.353  0.0702  0.1174 -0.1412
  510SOL    HW1 1664   1.721   1.738   0.308 -3.6256 -0.8699 -2.4211
  510SOL    HW2 1665   1.682   1.789   0.445  0.4350 -2.1048 -0.6487
  511SOL     OW 1666   3.162   0.358   3.163 -0.2819  0.0621  0.2682
  511SOL    HW1 1667   3.101   0.417   3.207  3.5035  4.8039 -0.1055
  511SOL    HW2 1668   3.126   0.348   3.075 -0.9103  2.1217  0.2520
  512SOL     OW 1669   2.455   0.881   0.430  0.3266  0.0649  0.2137
  512SOL    HW1 1670   2.396   0.820   0.475 -0.3342  0.3004 -0.3238
  512SOL    HW2 1671   2.524   0.826   0.394  0.8520 -0.1368  1.4775
  513SOL     OW 1672   1.118   3.053   1.683 -0.2270 -0.2022  0.4095
  513SOL    HW1 1673   1.150   3.097   1.762  0.3502  0.3324 -0.1067
  513SOL    HW2 1674   1.148   3.109   1.612  0.1501 -1.2170 -0.2488
  514SOL     OW 1675   0.800   3.410   1.327 -0.0674 -0.0709  0.7589
  514SOL    HW1 1676   0.861   3.468   1.371 -0.1921  1.0882 -0.5280
  514SOL    HW2 1677   0.848   3.328   1.316  0.1667 -0.1959  2.4608
  515SOL     OW 1678   1.204   1.478   2.024  0.3456 -0.6432  0.0667
  515SOL    HW1 1679   1.152   1.509   2.098  1.3718 -1.7706  1.3427
  515SOL    HW2 1680   1.259   1.553   2.001  0.2989 -0.3898  0.7349
  516SOL     OW 1681   3.531   2.654   2.237  0.4554 -0.1181 -0.4054
  516SOL    HW1 1682   3.512   2.722   2.302  2.0600  1.7491 -1.7582
  516SOL    HW2 1683   3.446   2.631   2.201 -0.2778  0.0553  1.1295
  517SOL     OW 1684   1.715   0.345   1.811 -0.3731  0.5588 -0.0411
  517SOL    HW1 1685   1.790   0.293   1.842 -0.5318 -1.1348 -2.2668
  517SOL    HW2 1686   1.753   0.429   1.786  1.5400 -1.1523 -3.7961
  518SOL     OW 1687   0.370   2.679   3.127 -0.0822  0.3338  0.3904
  518SOL    HW1 1688   0.407   2.685   3.216  0.0142 -0.8552  0.4403
  518SOL    HW2 1689   0.275   2.676   3.141 -0.0417 -0.6696  0.5174
  519SOL     OW 1690   1.912   0.040   1.259  0.6865  0.1828 -0.1515
  519SOL    HW1 1691   1.998   0.033   1.217  1.3667 -0.0826  1.2204
  519SOL    HW2 1692   1.932   0.052   1.352 -0.7458 -1.5212  0.4452
  520SOL     OW 1693   2.464   0.533   2.864  0.4976  0.4089  0.5345
  520SOL    HW1 1694   2.387   0.559   2.814  1.4240 -0.4742 -1.4425
  520SOL    HW2 1695   2.537   0.575   2.819  1.6810 -2.7106 -0.7366
  521SOL     OW 1696   0.650   3.415   2.105 -0.0848  0.2028 -0.6930
  521SOL    HW1 1697   0.699   3.351   2.157 -1.2581 -0.4660 -0.3802
  521SOL    HW2 1698   0.626   3.368   2.025 -1.6307 -0.0380 -0.1188
  522SOL     OW 1699   1.582   2.077   0.557 -0.1554 -0.2390 -0.0743
  522SOL    HW1 1700   1.536   2.160   0.570  0.6008 -0.0658  1.8838
  522SOL    HW2 1701   1.610   2.079   0.465 -0.5700  1.4482 -0.1919
  523SOL     OW 1702   2.652   0.888   2.633 -0.4847 -0.2503 -0.1199
  523SOL    HW1 1703   2.631   0.965   2.686  1.0797  0.0678  0.0903
  523SOL    HW2 1704   2.628   0.913   2.544  0.7946  0.8298 -0.1889
  524SOL     OW 1705   1.583   1.857   3.453  0.2635  0.1233 -0.5586
  524SOL    HW1 1706   1.653   1.920   3.469 -0.0474  0.0497  1.2982
  524SOL    HW2 1707   1.628   1.773   3.446  0.3922  0.0760  0.6255
  525SOL     OW 1708   3.133   2.733   3.404 -0.1875 -0.0058 -0.4750
  525SOL    HW1 1709   3.141   2.702   3.314  1.2265 -1.9244  0.2383
  525SOL    HW2 1710   3.102   2.823   3.396  1.3505  0.3948 -2.9477
  526SOL     OW 1711   1.100   2.629   1.776  0.4869 -0.1573  0.4691
  526SOL    HW1 1712   1.169   2.565   1.762 -0.5062 -0.8996 -1.3080
  526SOL    HW2 1713   1.126   2.675   1.856  1.6374 -2.2248  1.3601
  527SOL     OW 1714   1.699   1.051   2.764  0.4954  0.2821 -0.4534
  527SOL    HW1 1715   1.713   0.999   2.843 -0.2299 -1.0097 -1.1424
  527SOL    HW2 1716   1.726   1.139   2.788  4.0424 -0.7841  0.0800
  528SOL     OW 1717   2.804   1.758   2.641 -0.2448 -0.8562  0.0011
  528SOL    HW1 1718   2.725   1.773   2.590  1.1227  0.7760 -1.8232
  528SOL    HW2 1719   2.789   1.804   2.723 -1.0677 -0.2309 -0.4841
  529SOL     OW 1720   1.562   1.121   1.121 -0.1656  0.3642  0.2052
  529SOL    HW1 1721   1.547   1.179   1.196  3.8077  1.8970  0.0242
  529SOL    HW2 1722   1.648   1.083   1.136  0.6732  0.4826 -3.4286
  530SOL     OW 1723   1.926   2.515   0.385 -0.5749 -0.3038 -0.2453
  530SOL    HW1 1724   1.879   2.447   0.337 -1.1791 -2.5441  3.1492
  530SOL    HW2 1725   2.018   2.490   0.380 -0.2753  0.9845 -2.2905
  531SOL     OW 1726   3.024   0.286   1.938 -0.4593  0.7762  0.1561
  531SOL    HW1 1727   3.077   0.336   1.876 -1.1173  1.1009 -0.1489
  531SOL    HW2 1728   2.992   0.351   2.000 -3.7816  1.3420 -1.9190
  532SOL     OW 1729   2.341   3.549   3.536 -0.8043 -0.3628 -0.3024
  532SOL    HW1 1730   2.416   3.518   3.486  0.7803 -0.6306  2.0760
  532SOL    HW2 1731   2.292   3.604   3.475  1.8422  0.6186 -1.6694
  533SOL     OW 1732   2.008   1.669   1.757 -0.0183 -0.3571  0.7451
  533SOL    HW1 1733   2.065   1.606   1.799  0.3102 -0.8044 -0.3428
  533SOL    HW2 1734   1.942   1.616   1.712  0.7490  0.0171 -0.8791
  534SOL     OW 1735   0.929   1.333   2.758  0.4506  0.0762 -0.0602
  534SOL    HW1 1736   0.887   1.259   2.713  2.5263 -1.9754  1.1490
  534SOL    HW2 1737   1.010   1.348   2.708  0.8941  0.3265  0.7154
  535SOL     OW 1738   1.394   2.466   2.727 -0.2311 -0.4442  0.3585
  535SOL    HW1 1739   1.331   2.443   2.658 -0.0317  0.3119 -0.0868
  535SOL    HW2 1740   1.364   2.418   2.804 -0.8949 -0.7118 -0.0589
  536SOL     OW 1741   0.248   1.674   2.900 -0.3945  0.2875  0.0071
  536SOL    HW1 1742   0.236   1.637   2.813  0.3321  2.0557 -0.9035
  536SOL    HW2 1743   0.323   1.627   2.936 -0.1187  0.1833 -0.6959
  537SOL     OW 1744   2.690   0.759   0.304  0.2840  0.0674  0.4243
  537SOL    HW1 1745   2.669   0.837   0.254 -0.0622  1.1797  2.1938
  537SOL    HW2 1746   2.645   0.688   0.259 -0.3650  1.0796 -0.5586
  538SOL     OW 1747   3.567   3.255   0.408 -0.8346  0.0204  0.0526
  538SOL    HW1 1748   3.505   3.248   0.481 -1.7555 -0.0649 -0.7170
  538SOL    HW2 1749   3.552   3.342   0.372  0.1314  0.3422  0.4054
  539SOL     OW 1750   0.377   1.986   0.410  0.1626 -0.2416  0.4641
  539SOL    HW1 1751   0.466   2.017   0.423  0.1342  0.6523 -1.2388
  539SOL    HW2 1752   0.325   2.065   0.394 -1.1720 -0.6397  2.4210
  540SOL     OW 1753   3.512   0.407   0.672 -0.4712  0.2325 -0.0684
  540SOL    HW1 1754   3.461   0.390   0.593 -0.0467 -1.8581  0.0462
  540SOL    HW2 1755   3.543   0.497   0.662  0.7174 -0.3909 -2.9665
  541SOL     OW 1756   2.510   0.239   3.241  0.2376 -0.5173  0.3498
  541SOL    HW1 1757   2.493   0.186   3.163 -0.4831 -1.1714  0.9308
  541SOL    HW2 1758   2.436   0.300   3.245 -0.9934 -2.0067  1.7558
  542SOL     OW 1759   2.779   2.253   0.725  0.4279  0.5209 -0.4353
  542SOL    HW1 1760   2.852   2.223   0.779 -0.7546 -1.5053  0.1233
  542SOL    HW2 1761   2.705   2.261   0.785 -0.3180  0.5595 -1.3301
  543SOL     OW 1762   1.476   1.148   3.477 -0.1264 -0.0794 -0.1953
  543SOL    HW1 1763   1.395   1.193   3.452 -1.1266 -1.2781  0.7617
  543SOL    HW2 1764   1.545   1.196   3.431 -1.1799  2.0585  0.3295
  544SOL     OW 1765   0.163   3.332   1.383  0.0364 -0.3226  0.2101
  544SOL    HW1 1766   0.188   3.415   1.342  0.3512 -0.6519 -0.2792
  544SOL    HW2 1767   0.246   3.295   1.414  0.2314 -1.5079 -1.5786
  545SOL     OW 1768   3.077   0.697   2.347 -0.6006  0.5306 -0.0685
  545SOL    HW1 1769   3.117   0.751   2.415 -2.0247  1.9416 -0.2889
  545SOL    HW2 1770   3.151   0.656   2.303  0.5371  2.0622  0.3131
  546SOL     OW 1771   0.492   3.245   0.852 -0.6904 -0.0496  0.1237
  546SOL    HW1 1772   0.488   3.336   0.824  1.5783 -0.2508 -1.1405
  546SOL    HW2 1773   0.480   3.249   0.947 -4.2825  1.1065 -0.2478
  547SOL     OW 1774   0.844   2.505   2.325  0.1826  0.1983  0.1989
  547SOL    HW1 1775   0.939   2.497   2.323  0.1253 -0.7404 -2.2235
  547SOL    HW2 1776   0.817   2.448   2.397  1.3650 -1.2380 -0.4316
  548SOL     OW 1777   2.799   0.086   3.044  0.0561 -0.0436  0.0273
  548SOL    HW1 1778   2.823   0.119   3.130  1.9106  1.8069 -1.1021
  548SOL    HW2 1779   2.752   0.160   3.003  0.7074 -0.2480 -1.1300
  549SOL     OW 1780   2.057   0.478   2.813  0.1274 -0.0659  0.3702
  549SOL    HW1 1781   2.078   0.518   2.728 -0.6863 -0.3060  0.0433
  549SOL    HW2 1782   2.024   0.550   2.866 -0.4506 -0.1156  0.0911
  550SOL     OW 1783   0.250   2.557   0.541  0.1757 -0.3557  0.1917
  550SOL    HW1 1784   0.279   2.509   0.619 -1.1078  0.2849  1.0958
  550SOL    HW2 1785   0.223   2.488   0.480  1.6698 -0.8817  0.0875
  551SOL     OW 1786   0.271   2.451   1.715 -0.0092 -0.1364 -0.1426
  551SOL    HW1 1787   0.300   2.366   1.681 -1.1030 -0.6462  0.1584
  551SOL    HW2 1788   0.302   2.515   1.650  2.8708 -0.4838  0.7851
  552SOL     OW 1789   2.247   2.770   1.474  0.0353 -0.4651 -0.1451
  552SOL    HW1 1790   2.289   2.746   1.557 -0.4999  0.8058  0.5163
  552SOL    HW2 1791   2.187   2.841   1.497  2.7786  2.8391 -2.2344
  553SOL     OW 1792   0.988   0.471   0.939 -0.0931  0.3989  0.1922
  553SOL    HW1 1793   0.925   0.541   0.923  0.8896  1.6030  1.3589
  553SOL    HW2 1794   1.060   0.514   0.985 -0.1440 -1.6771  2.4091
  554SOL     OW 1795   1.782   0.201   2.460  0.1816  0.2027 -0.7755
  554SOL    HW1 1796   1.688   0.217   2.454 -0.1919 -0.7681  1.4995
  554SOL    HW2 1797   1.807   0.172   2.372 -1.9005 -0.7156 -1.1168
  555SOL     OW 1798   0.437   2.574   1.146 -0.4707  0.4446  0.1699
  555SOL    HW1 1799   0.364   2.515   1.126 -0.5407  0.9321 -1.0457
  555SOL    HW2 1800   0.400   2.662   1.141  0.0415  0.6702  0.2416
  556SOL     OW 1801   2.484   2.648   0.671 -0.3760  0.1289 -1.3172
  556SOL    HW1 1802   2.520   2.573   0.624  0.4361 -1.9241  2.2109
  556SOL    HW2 1803   2.561   2.692   0.707 -1.0158  0.9808 -0.9689
  557SOL     OW 1804   3.082   2.352   0.602 -0.1447  0.4269 -0.0384
  557SOL    HW1 1805   3.176   2.363   0.611  0.1603 -1.4677 -0.3839
  557SOL    HW2 1806   3.057   2.296   0.676 -1.2118  1.7896  0.6788
  558SOL     OW 1807   1.398   1.478   3.596  0.1679  0.0023  0.1053
  558SOL    HW1 1808   1.458   1.514   3.661  1.8143 -0.2695 -1.1758
  558SOL    HW2 1809   1.324   1.446   3.646  0.5165  1.4529  1.6540
  559SOL     OW 1810   2.202   3.334   1.378  0.5036  0.1348 -0.2384
  559SOL    HW1 1811   2.212   3.246   1.343  2.9263  0.5101 -0.6786
  559SOL    HW2 1812   2.233   3.328   1.469  0.8657  0.5439 -0.3277
  560SOL     OW 1813   0.586   1.483   0.424 -0.6970 -0.0697 -0.3320
  560SOL    HW1 1814   0.544   1.550   0.479 -1.3522  1.9175 -3.0189
  560SOL    HW2 1815   0.596   1.408   0.482 -2.5869  1.3670  2.0987
  561SOL     OW 1816   2.110   0.813   0.094 -0.3708  1.0111  0.5753
  561SOL    HW1 1817   2.089   0.742   0.155  0.5341 -1.7089 -2.0088
  561SOL    HW2 1818   2.164   0.771   0.026 -0.2109  4.0928 -1.4103
  562SOL     OW 1819   0.437   0.083   0.670 -0.9820  0.4399  0.5520
  562SOL    HW1 1820   0.456   0.152   0.733  1.3623 -0.6030  1.0842
  562SOL    HW2 1821   0.500   0.097   0.599  0.4335 -1.7955  1.2597
  563SOL     OW 1822   1.977   3.720   1.704 -0.3207  0.0607  0.5303
  563SOL    HW1 1823   1.995   3.629   1.682  0.8336  0.3190  0.3465
  563SOL    HW2 1824   1.949   3.760   1.621  0.2047  0.1196  0.3812
  564SOL     OW 1825   0.548   2.793   3.642  0.8426 -0.3901  0.0271
  564SOL    HW1 1826   0.502   2.710   3.645  0.4795 -0.1694  0.9345
  564SOL    HW2 1827   0.566   2.814   3.734  1.5797  0.1710 -0.2363
  565SOL     OW 1828   2.151   1.829   0.259 -0.3944  0.2755 -0.0187
  565SOL    HW1 1829   2.085   1.829   0.329  1.1913 -0.2880  1.5367
  565SOL    HW2 1830   2.155   1.739   0.230  1.7324 -0.3814  1.9949
  566SOL     OW 1831   2.180   1.915   3.042 -0.3634 -0.8871  0.3998
  566SOL    HW1 1832   2.236   1.935   3.117  0.1389 -0.9689  0.0497
  566SOL    HW2 1833   2.208   1.828   3.014 -0.6940 -0.9469  0.2467
  567SOL     OW 1834   0.056   1.950   1.655 -0.0533  0.5438  0.0907
  567SOL    HW1 1835  -0.039   1.962   1.650  0.2392  3.1852 -0.5814
  567SOL    HW2 1836   0.087   2.021   1.712  1.5336 -0.2056  0.2256
  568SOL     OW 1837   1.875   0.184   1.498 -0.0317  0.3710  0.5108
  568SOL    HW1 1838   1.875   0.252   1.430 -1.9006 -1.0155 -0.9957
  568SOL    HW2 1839   1.782   0.171   1.518  0.3994 -0.3809  2.2118
  569SOL     OW 1840   2.273   2.321   1.290 -0.6892 -0.2835  0.0031
  569SOL    HW1 1841   2.249   2.229   1.295 -0.4594 -0.3138  0.6630
  569SOL    HW2 1842   2.260   2.354   1.379 -0.4166  0.2317 -0.1442
  570SOL     OW 1843   2.980   3.166   1.055 -0.5212 -0.0795 -0.3478
  570SOL    HW1 1844   3.042   3.093   1.057 -2.2183 -1.5792  1.5914
  570SOL    HW2 1845   3.024   3.233   1.002  1.0607 -2.4943 -2.3148
  571SOL     OW 1846   2.101   0.959   1.183  1.0401 -0.2230  0.2897
  571SOL    HW1 1847   2.180   0.957   1.237  1.3937 -0.6463 -0.2282
  571SOL    HW2 1848   2.128   0.919   1.100 -0.3489 -2.8325  0.9809
  572SOL     OW 1849   2.660   0.626   1.104  0.0262 -0.1687  0.5104
  572SOL    HW1 1850   2.694   0.692   1.043 -2.5728  0.2212 -0.6654
  572SOL    HW2 1851   2.731   0.610   1.165  1.4912  2.1295 -0.4803
  573SOL     OW 1852   1.982   0.235   3.450 -0.4265  0.1340 -0.1656
  573SOL    HW1 1853   1.980   0.308   3.511  1.0826 -0.3303  0.5046
  573SOL    HW2 1854   2.038   0.265   3.378  0.4061 -0.4110  0.2314
  574SOL     OW 1855   3.240   3.148   2.959  0.1025  0.3400 -0.8282
  574SOL    HW1 1856   3.192   3.132   3.040  0.3743 -0.3907 -0.8092
  574SOL    HW2 1857   3.307   3.080   2.956  0.6087  0.8397 -1.2695
  575SOL     OW 1858   3.033   1.497   3.245  0.3105 -0.3430  0.2501
  575SOL    HW1 1859   3.086   1.451   3.310  0.6618 -0.0593  0.1657
  575SOL    HW2 1860   2.994   1.570   3.294  2.6619  1.4768 -0.3934
  576SOL     OW 1861   0.765   1.994   2.035  0.4587 -0.2177  0.4050
  576SOL    HW1 1862   0.785   1.942   1.957 -2.0203  1.0278 -1.2028
  576SOL    HW2 1863   0.842   2.049   2.048  0.5837  0.2054 -1.7767
  577SOL     OW 1864   3.456   3.342   3.499  0.7647  0.3125  0.2856
  577SOL    HW1 1865   3.519   3.288   3.451  0.5097  0.2163  0.0591
  577SOL    HW2 1866   3.478   3.432   3.472  0.9976  0.3005  0.4360
  578SOL     OW 1867   0.774   3.044   1.003  0.6280  0.2211 -0.5555
  578SOL    HW1 1868   0.857   2.996   1.007 -0.0764 -0.9787  0.5703
  578SOL    HW2 1869   0.760   3.074   1.093 -0.8894 -0.9216 -0.3826
  579SOL     OW 1870   3.310   3.081   2.418  0.7976 -0.1877  0.0754
  579SOL    HW1 1871   3.388   3.043   2.378 -0.1843 -2.1395 -0.1050
  579SOL    HW2 1872   3.272   3.136   2.350  0.6273 -1.2986 -0.7549
  580SOL     OW 1873   3.544   2.179   0.835 -0.4621  0.1056 -0.0099
  580SOL    HW1 1874   3.479   2.200   0.769 -1.8930 -2.1323  0.5918
  580SOL    HW2 1875   3.558   2.085   0.827  0.7558  0.0885  1.6199
  581SOL     OW 1876   3.371   3.453   0.950 -0.5311  0.2880 -0.4289
  581SOL    HW1 1877   3.311   3.437   0.877  0.5092 -0.3845 -1.1693
  581SOL    HW2 1878   3.437   3.513   0.914 -1.3085  1.9026  0.6916
  582SOL     OW 1879   0.023   0.860   1.496 -0.2146 -0.1208  0.0663
  582SOL    HW1 1880  -0.057   0.848   1.547  0.3382 -0.2764  0.9181
  582SOL    HW2 1881   0.090   0.815   1.546 -0.1292 -2.8065 -2.2059
  583SOL     OW 1882   0.906   0.953   1.046 -1.0406 -0.1190  0.3570
  583SOL    HW1 1883   0.923   1.006   1.124  1.4656 -0.9844  0.4854
  583SOL    HW2 1884   0.935   1.008   0.973 -2.0865  0.1529  0.1311
  584SOL     OW 1885   3.477   1.010   1.114  0.1641  0.4753  0.3149
  584SOL    HW1 1886   3.442   0.948   1.178 -0.8724  1.0512  0.3370
  584SOL    HW2 1887   3.524   0.956   1.051 -0.0484 -0.2513  0.7669
  585SOL     OW 1888   1.536   0.801   3.348  0.0859  0.7688 -0.0273
  585SOL    HW1 1889   1.518   0.752   3.268  0.4704 -0.5737  0.6673
  585SOL    HW2 1890   1.625   0.776   3.372  0.2382  1.7145  0.4430
  586SOL     OW 1891   3.587   3.119   2.238  0.0275  0.2334  0.1389
  586SOL    HW1 1892   3.511   3.143   2.184 -1.0064 -0.1999  1.3411
  586SOL    HW2 1893   3.645   3.071   2.179  1.1916  3.6953 -1.8161
  587SOL     OW 1894   2.089   0.617   0.989  0.1737  0.1132 -0.3162
  587SOL    HW1 1895   2.104   0.526   1.013 -0.1696 -0.0359 -0.6529
  587SOL    HW2 1896   2.066   0.614   0.896  0.3340  0.5610 -0.3722
  588SOL     OW 1897   0.950   1.315   1.458 -0.2097 -0.2569 -0.2132
  588SOL    HW1 1898   1.026   1.301   1.515 -0.8762 -0.7204  0.5837
  588SOL    HW2 1899   0.913   1.399   1.488  0.0767  0.0496 -0.7090
  589SOL     OW 1900   3.401   1.948   0.944  0.0497 -0.5958 -0.3159
  589SOL    HW1 1901   3.365   2.033   0.920 -0.1972 -1.0373 -1.5592
  589SOL    HW2 1902   3.347   1.918   1.018 -1.0323 -0.4826 -1.0437
  590SOL     OW 1903   2.352   2.583   3.051  0.4182 -0.5394  0.5430
  590SOL    HW1 1904   2.368   2.677   3.048 -0.3870 -0.4028 -1.6391
  590SOL    HW2 1905   2.422   2.545   2.997 -0.0803 -1.0488  0.2455
  591SOL     OW 1906   1.307   3.446   1.397 -0.5874 -0.4330 -0.0287
  591SOL    HW1 1907   1.388   3.429   1.445 -0.4626  1.6351  0.5962
  591SOL    HW2 1908   1.321   3.405   1.311  0.9663 -0.4273  0.1861
  592SOL     OW 1909   0.230   3.261   1.013 -0.5062 -0.1503  0.1717
  592SOL    HW1 1910   0.191   3.348   1.002 -0.5688 -0.1417  0.4599
  592SOL    HW2 1911   0.295   3.272   1.081  0.4320 -0.0330 -0.7200
  593SOL     OW 1912   1.380   2.516   3.392  0.3085 -0.6719  0.6209
  593SOL    HW1 1913   1.338   2.430   3.385  0.0526 -0.4799 -0.2767
  593SOL    HW2 1914   1.354   2.562   3.312  3.9401 -1.2639 -1.0907
  594SOL     OW 1915   0.115   0.895   0.946 -0.3041 -0.2885  0.0495
  594SOL    HW1 1916   0.149   0.919   0.859 -1.3089 -2.2209 -0.9511
  594SOL    HW2 1917   0.188   0.911   1.005  1.5152 -1.7940 -1.6271
  595SOL     OW 1918   1.852   0.162   2.201  0.1906 -0.1667 -0.0224
  595SOL    HW1 1919   1.933   0.210   2.186 -0.2226  0.3994 -0.4892
  595SOL    HW2 1920   1.867   0.076   2.162 -0.6641  1.0689 -3.4061
  596SOL     OW 1921   3.267   2.087   1.725 -1.0895 -0.1258  0.5369
  596SOL    HW1 1922   3.186   2.134   1.747 -0.8190 -0.0340  1.3743
  596SOL    HW2 1923   3.332   2.122   1.787 -0.2188  0.3476 -0.6118
  597SOL     OW 1924   1.479   3.653   2.913 -0.3351 -0.0380 -0.2425
  597SOL    HW1 1925   1.453   3.611   2.831  0.3519 -0.8814 -0.0410
  597SOL    HW2 1926   1.573   3.636   2.920 -0.9177 -3.2483  2.4859
  598SOL     OW 1927   1.023   0.917   2.123 -0.2071 -0.0500 -0.3006
  598SOL    HW1 1928   0.964   0.992   2.115 -0.3037 -0.1141 -0.1858
  598SOL    HW2 1929   1.079   0.922   2.045 -0.3365  0.0343 -0.3885
  599SOL     OW 1930   0.626   0.705   1.607  0.6494  0.2212  0.6002
  599SOL    HW1 1931   0.590   0.629   1.561 -3.2695  1.5017  1.1129
  599SOL    HW2 1932   0.645   0.769   1.538  2.2749 -0.5565  0.2972
  600SOL     OW 1933   3.484   2.006   2.046  0.6856  0.1685 -0.0174
  600SOL    HW1 1934   3.572   1.983   2.015  0.0001  0.1760 -2.1675
  600SOL    HW2 1935   3.456   1.930   2.097  1.6298 -0.2035 -0.0319
  601SOL     OW 1936   2.341   1.359   2.761  0.3322  0.4369  0.5282
  601SOL    HW1 1937   2.308   1.390   2.845 -1.5638  0.9398 -0.3543
  601SOL    HW2 1938   2.284   1.286   2.738 -0.5263  1.6017 -1.2514
  602SOL     OW 1939   2.636   0.614   2.331  0.2593 -0.9461 -0.2584
  602SOL    HW1 1940   2.567   0.580   2.389 -0.9364 -0.8089 -1.5235
  602SOL    HW2 1941   2.707   0.551   2.339 -1.1120 -2.7113 -0.9970
  603SOL     OW 1942   1.209   0.822   0.097  0.2852  0.4425  0.2397
  603SOL    HW1 1943   1.246   0.734   0.091  0.9574  0.6849  0.7148
  603SOL    HW2 1944   1.235   0.864   0.015  0.8505  0.5307  0.4645
  604SOL     OW 1945   2.456   2.286   1.544  0.4491  0.3669  0.7479
  604SOL    HW1 1946   2.370   2.328   1.542  0.2037 -0.0135 -2.4423
  604SOL    HW2 1947   2.510   2.339   1.485  0.3862 -2.9213 -2.6941
  605SOL     OW 1948   1.674   2.171   0.053  0.2438  0.0205 -0.3293
  605SOL    HW1 1949   1.585   2.155   0.022 -0.7008  1.0925  1.6622
  605SOL    HW2 1950   1.729   2.119  -0.006 -1.6567 -0.5148 -1.7368
  606SOL     OW 1951   3.527   2.803   0.035 -0.4251  0.8305  0.6439
  606SOL    HW1 1952   3.541   2.733  -0.028 -4.4290  0.9759 -0.7102
  606SOL    HW2 1953   3.538   2.761   0.120  3.0727  0.1457  0.0090
  607SOL     OW 1954   1.507   1.787   2.474  0.4199  0.7211  0.6713
  607SOL    HW1 1955   1.577   1.821   2.529 -0.6828  0.6725  2.1652
  607SOL    HW2 1956   1.548   1.716   2.424  1.6717  1.3886  0.7101
  608SOL     OW 1957   3.200   2.341   3.023 -0.1378 -0.1186 -0.6207
  608SOL    HW1 1958   3.219   2.352   2.930 -0.4667 -0.9795 -0.7991
  608SOL    HW2 1959   3.286   2.324   3.062  0.3675  2.6600 -0.3550
  609SOL     OW 1960   2.245   1.139   0.418 -0.2441 -0.2218 -0.2340
  609SOL    HW1 1961   2.238   1.054   0.374 -1.5811  0.4075 -1.3414
  609SOL    HW2 1962   2.199   1.200   0.360 -1.0256  0.8992  1.4617
  610SOL     OW 1963   2.937   2.819   0.415  0.5755  0.3595  0.7898
  610SOL    HW1 1964   2.970   2.730   0.423  0.6753  0.4931  2.2689
  610SOL    HW2 1965   2.891   2.821   0.331  1.5353 -0.7502  0.2120
  611SOL     OW 1966   1.861   0.353   0.299  0.1163  0.4645  0.2732
  611SOL    HW1 1967   1.866   0.323   0.390 -1.2835 -2.6137 -0.5110
  611SOL    HW2 1968   1.775   0.395   0.293  0.5065  1.3121  0.5104
  612SOL     OW 1969   0.665   0.368   0.325 -0.1344 -0.0086 -0.5681
  612SOL    HW1 1970   0.745   0.418   0.341  0.5752 -1.1537 -0.4346
  612SOL    HW2 1971   0.596   0.419   0.367  0.3412  1.5247 -1.5583
  613SOL     OW 1972   2.467   1.798   1.477  0.1899 -0.1472  0.9265
  613SOL    HW1 1973   2.413   1.814   1.555  0.1694  1.1447  0.6746
  613SOL    HW2 1974   2.459   1.879   1.426 -1.6469 -1.7721 -1.5887
  614SOL     OW 1975   2.996   3.201   2.795 -0.2916  0.2121  0.2079
  614SOL    HW1 1976   3.030   3.153   2.720 -0.8303 -0.9998  0.7013
  614SOL    HW2 1977   3.065   3.193   2.862 -1.2189 -1.7779  1.0212
  615SOL     OW 1978   1.010   3.616   3.303 -0.5619  0.0009 -0.0275
  615SOL    HW1 1979   1.019   3.649   3.393 -1.2483 -1.6066  0.6772
  615SOL    HW2 1980   1.043   3.526   3.308 -0.3922 -0.0285 -1.4519
  616SOL     OW 1981   1.959   1.019   3.282 -0.2309 -0.6257 -0.0684
  616SOL    HW1 1982   2.016   1.075   3.334  0.1215 -2.9874  2.2706
  616SOL    HW2 1983   1.877   1.014   3.331 -0.9470 -0.6850 -1.2091
  617SOL     OW 1984   1.831   2.931   1.755 -0.0180  0.5014 -0.2041
  617SOL    HW1 1985   1.755   2.913   1.701  1.1287  0.1876 -1.7866
  617SOL    HW2 1986   1.863   3.016   1.725  1.3707 -0.2479 -0.9873
  618SOL     OW 1987   2.453   1.703   0.374  0.3929 -0.1935  0.1952
  618SOL    HW1 1988   2.397   1.687   0.450  0.1767  1.1422  0.3415
  618SOL    HW2 1989   2.536   1.732   0.412  0.8559 -1.1521 -0.0492
  619SOL     OW 1990   2.846   3.078   1.288  0.3692 -0.5797  0.3168
  619SOL    HW1 1991   2.759   3.098   1.253 -0.2905 -0.3821  1.9633
  619SOL    HW2 1992   2.907   3.118   1.226 -0.7736  0.8030  0.0274
  620SOL     OW 1993   3.654   3.564   0.692  1.3615 -0.8032 -0.1111
  620SOL    HW1 1994   3.573   3.616   0.697  0.7519 -1.8409  1.2051
  620SOL    HW2 1995   3.652   3.525   0.604  0.0506 -1.3980  0.1586
  621SOL     OW 1996   3.489   0.648   0.442 -0.4426 -0.2622  0.1614
  621SOL    HW1 1997   3.419   0.595   0.404 -0.0150  0.0053 -1.0514
  621SOL    HW2 1998   3.471   0.737   0.412  1.3667 -0.4462 -1.7152
  622SOL     OW 1999   1.815   0.570   1.996  0.1727 -0.1248 -0.0380
  622SOL    HW1 2000   1.842   0.481   1.973  0.6589  0.0808 -0.2776
  622SOL    HW2 2001   1.827   0.576   2.090  0.0734 -0.3369 -0.0128
  623SOL     OW 2002   1.489   1.882   1.349  0.3808  0.0295  0.1011
  623SOL    HW1 2003   1.582   1.869   1.366  1.0110  4.3593  1.1024
  623SOL    HW2 2004   1.485   1.909   1.257 -0.0911 -1.2279 -0.2689
  624SOL     OW 2005   0.628   3.013   0.760 -0.1950  0.0076  0.2025
  624SOL    HW1 2006   0.578   3.094   0.769 -0.2489 -0.1415  1.3636
  624SOL    HW2 2007   0.696   3.019   0.827 -0.6863 -1.2482  0.8396
  625SOL     OW 2008   3.018   2.692   3.671 -0.0312  0.4051  0.1299
  625SOL    HW1 2009   3.068   2.698   3.589  0.2005  1.9329  0.3559
  625SOL    HW2 2010   3.079   2.650   3.732  1.2791  2.6931  0.5471
  626SOL     OW 2011   2.180   2.612   3.273  0.2606  0.5314  0.1378
  626SOL    HW1 2012   2.229   2.611   3.191  0.1836 -2.2609  0.0461
  626SOL    HW2 2013   2.092   2.641   3.248  0.5677  0.9413 -0.5115
  627SOL     OW 2014   1.619   0.785   2.485  0.4919  0.0911 -0.2674
  627SOL    HW1 2015   1.714   0.776   2.494  0.2523 -1.9381  1.0906
  627SOL    HW2 2016   1.591   0.831   2.565  0.2043 -0.7807  0.1510
  628SOL     OW 2017   0.868   3.644   2.518 -0.1465 -0.3696 -0.2194
  628SOL    HW1 2018   0.894   3.684   2.602 -1.0367  0.9619 -0.5394
  628SOL    HW2 2019   0.784   3.602   2.537  0.8009 -2.1679  0.1189
  629SOL     OW 2020   1.047   2.920   1.016  0.0890 -0.3548 -0.2480
  629SOL    HW1 2021   1.021   2.836   1.055  0.5630 -0.0747  0.7114
  629SOL    HW2 2022   1.134   2.937   1.051 -0.6295  1.3097  0.8818
  630SOL     OW 2023   2.261   0.155   3.630  0.5294  0.2024  0.4162
  630SOL    HW1 2024   2.240   0.095   3.558 -1.4155 -0.1686  1.2378
  630SOL    HW2 2025   2.290   0.235   3.586  0.5270 -0.4039 -0.7521
  631SOL     OW 2026   3.312   2.292   1.042 -0.0703 -0.1402  0.2030
  631SOL    HW1 2027   3.318   2.204   1.080  3.7622 -0.1639 -0.0844
  631SOL    HW2 2028   3.232   2.329   1.081 -1.2654 -3.3188  1.1246
  632SOL     OW 2029   2.118   3.517   3.179  0.0009  0.1824  0.0880
  632SOL    HW1 2030   2.097   3.528   3.272 -1.2219  2.5970 -0.3902
  632SOL    HW2 2031   2.214   3.517   3.176  0.0637 -0.2228  1.3728
  633SOL     OW 2032   1.296   3.475   2.175  0.3363  0.2528 -0.1833
  633SOL    HW1 2033   1.369   3.444   2.121  0.1973  0.4420 -0.4790
  633SOL    HW2 2034   1.258   3.547   2.125 -0.2915 -0.0908 -0.2074
  634SOL     OW 2035   1.859   0.262   3.031 -0.4230 -0.2599 -0.0999
  634SOL    HW1 2036   1.842   0.171   3.006  1.7882 -0.8842  0.4423
  634SOL    HW2 2037   1.834   0.313   2.954 -1.1464 -1.3569 -0.6198
  635SOL     OW 2038   2.158   2.371   0.507  0.4495  0.6748 -0.3073
  635SOL    HW1 2039   2.080   2.420   0.533  0.4596  1.8754 -2.3114
  635SOL    HW2 2040   2.154   2.291   0.558 -2.1172  0.7013 -0.3312
  636SOL     OW 2041   0.974   2.950   1.870 -0.0847  0.4825  0.4743
  636SOL    HW1 2042   1.003   2.989   1.787 -0.2598 -0.2887  0.0396
  636SOL    HW2 2043   1.045   2.892   1.896  0.6758  1.8942  1.7074
  637SOL     OW 2044   2.376   0.458   0.522  0.2808 -0.1788  0.3008
  637SOL    HW1 2045   2.397   0.415   0.439 -1.1909  1.0956 -0.7785
  637SOL    HW2 2046   2.403   0.394   0.588  1.2917 -1.3259 -1.1340
  638SOL     OW 2047   0.423   2.960   1.612  1.0091  0.0570 -0.2777
  638SOL    HW1 2048   0.362   2.910   1.665  0.8097  1.3975  0.8289
  638SOL    HW2 2049   0.459   2.897   1.550 -0.5062 -1.0424 -0.0847
  639SOL     OW 2050   3.539   1.907   1.233  0.5688  0.1490 -0.0768
  639SOL    HW1 2051   3.463   1.965   1.232  1.4078  1.3450 -2.4548
  639SOL    HW2 2052   3.507   1.826   1.274 -1.3608  1.3346  0.9267
  640SOL     OW 2053   1.028   3.132   2.556 -0.3034 -0.1641 -0.1020
  640SOL    HW1 2054   1.060   3.138   2.646 -0.2948 -1.7422  0.0352
  640SOL    HW2 2055   0.977   3.211   2.543  1.1269  0.9427  0.6992
  641SOL     OW 2056   0.379   0.146   0.193 -0.2608  0.1136  0.3973
  641SOL    HW1 2057   0.421   0.062   0.215 -2.4228 -0.7854  1.4330
  641SOL    HW2 2058   0.322   0.164   0.268 -1.9995  1.0303 -1.0763
  642SOL     OW 2059   2.820   0.088   3.587  0.1109 -0.2999 -0.4356
  642SOL    HW1 2060   2.916   0.094   3.592  0.1787 -0.4154 -1.4519
  642SOL    HW2 2061   2.790   0.119   3.672  1.0599 -0.4265 -0.0412
  643SOL     OW 2062   2.611   2.602   3.265  0.3241  0.1100 -0.6562
  643SOL    HW1 2063   2.574   2.515   3.278  0.1259  0.2740 -0.1071
  643SOL    HW2 2064   2.560   2.659   3.323  1.5590  0.3023  0.2808
  644SOL     OW 2065   0.882   1.646   0.148  0.0105 -0.5950 -0.2448
  644SOL    HW1 2066   0.788   1.656   0.159  0.2409  2.0363  0.2159
  644SOL    HW2 2067   0.914   1.736   0.135  2.6891 -1.1255  1.7401
  645SOL     OW 2068   0.133   1.953   2.741 -0.3239 -0.2406 -0.1502
  645SOL    HW1 2069   0.074   1.940   2.815 -0.3891  1.2558  0.0846
  645SOL    HW2 2070   0.176   2.037   2.759  0.3065 -0.2807 -1.3759
  646SOL     OW 2071   1.350   1.221   2.306  0.2808 -0.3603  0.8074
  646SOL    HW1 2072   1.401   1.145   2.332  1.2336 -1.0310 -2.4691
  646SOL    HW2 2073   1.306   1.193   2.225 -0.8503  1.9646  0.5378
  647SOL     OW 2074   0.629   3.695   2.111  0.6351 -0.1663  0.2709
  647SOL    HW1 2075   0.631   3.600   2.106 -0.3651 -0.2002  0.2321
  647SOL    HW2 2076   0.719   3.723   2.093  1.1127 -1.1327  1.1032
  648SOL     OW 2077   0.938   1.765   1.803 -0.4155  0.0511  0.0514
  648SOL    HW1 2078   1.005   1.761   1.871 -0.0087 -1.8152 -0.4034
  648SOL    HW2 2079   0.980   1.730   1.725 -1.2854  0.9007 -0.8350
  649SOL     OW 2080   0.131   2.999   1.110  0.4903 -0.7501  0.1603
  649SOL    HW1 2081   0.040   3.029   1.108  0.5928  0.0290  2.9180
  649SOL    HW2 2082   0.178   3.062   1.056  0.0332  1.7415  2.4279
  650SOL     OW 2083   3.170   2.064   3.584  0.1592  0.1111 -0.1038
  650SOL    HW1 2084   3.104   2.122   3.622 -1.7911 -1.2618 -1.2180
  650SOL    HW2 2085   3.253   2.098   3.617 -1.1120  1.5104  1.9253
  651SOL     OW 2086   0.348   1.954   1.864 -0.3891  0.6132 -0.6315
  651SOL    HW1 2087   0.425   1.963   1.808  1.6375  0.6719  1.9493
  651SOL    HW2 2088   0.327   2.044   1.890  1.2806  0.3680  1.8320
  652SOL     OW 2089   1.883   2.811   1.396 -1.1848  0.3372 -0.3528
  652SOL    HW1 2090   1.823   2.817   1.321 -1.8227 -1.2298 -0.0064
  652SOL    HW2 2091   1.914   2.721   1.394 -0.3104  0.6041  0.6061
  653SOL     OW 2092   0.608   0.235   3.579 -0.4013  0.6549 -0.1482
  653SOL    HW1 2093   0.535   0.188   3.617 -0.0719 -1.1669 -1.6532
  653SOL    HW2 2094   0.662   0.261   3.654  0.5697 -3.3743  0.7762
  654SOL     OW 2095   3.366   0.936   3.553  0.0609 -0.2469 -0.1975
  654SOL    HW1 2096   3.407   0.951   3.638  0.7978  1.5148 -0.8313
  654SOL    HW2 2097   3.439   0.920   3.494 -0.4934 -2.5856 -0.3483
  655SOL     OW 2098   1.914   2.264   0.618  0.7623 -0.5488 -0.1375
  655SOL    HW1 2099   1.907   2.207   0.542 -0.0388 -1.0562  0.3043
  655SOL    HW2 2100   1.981   2.224   0.673 -0.2516 -1.4594  0.4794
  656SOL     OW 2101   3.510   3.161   1.004  0.2173  0.2520  0.1035
  656SOL    HW1 2102   3.524   3.067   1.008  2.5741  0.5588  0.7243
  656SOL    HW2 2103   3.553   3.189   0.924  2.8938  1.1908  1.7393
  657SOL     OW 2104   2.475   2.996  -0.035  0.2469  0.5216 -0.1734
  657SOL    HW1 2105   2.552   2.948  -0.003  1.5376  1.8468 -1.1367
  657SOL    HW2 2106   2.444   3.045   0.041  2.3525  2.4478 -0.4230
  658SOL     OW 2107   0.733   2.548   3.198 -0.4265  0.4747  0.0123
  658SOL    HW1 2108   0.705   2.609   3.266  0.5655 -0.7140  1.5197
  658SOL    HW2 2109   0.680   2.573   3.122 -2.1818  1.2957  1.4274
  659SOL     OW 2110   3.141   2.590   2.582  0.5651  0.0533 -0.3059
  659SOL    HW1 2111   3.234   2.570   2.573  0.2196 -0.7247 -4.2351
  659SOL    HW2 2112   3.103   2.512   2.623  1.6159  0.5573  1.7361
  660SOL     OW 2113   3.252   1.520   1.166  0.0205  0.0253 -0.1210
  660SOL    HW1 2114   3.240   1.520   1.071  0.4489 -3.2406 -0.3139
  660SOL    HW2 2115   3.165   1.500   1.201  0.2488 -0.8770 -0.0243
  661SOL     OW 2116   0.958   0.736   3.363  0.9159 -0.4136 -0.1990
  661SOL    HW1 2117   0.871   0.763   3.394  0.3018 -2.0366 -0.3714
  661SOL    HW2 2118   0.941   0.693   3.279  2.1458  0.8907 -1.1720
  662SOL     OW 2119   3.048   2.899   1.712 -0.0562  0.2506 -0.1947
  662SOL    HW1 2120   2.978   2.887   1.648  0.7668  2.3202 -1.5934
  662SOL    HW2 2121   3.092   2.980   1.684  1.8168 -0.0645  1.6325
  663SOL     OW 2122   1.134   1.848   2.050  0.4443  0.5295 -0.5533
  663SOL    HW1 2123   1.155   1.794   2.126  1.0563 -0.2205 -1.2339
  663SOL    HW2 2124   1.218   1.877   2.016  0.1384  1.5977 -0.4427
  664SOL     OW 2125   3.518   1.682   0.347  0.0277  0.2577  0.1428
  664SOL    HW1 2126   3.486   1.756   0.295  0.9958 -0.1648 -1.1173
  664SOL    HW2 2127   3.609   1.706   0.367  0.5362 -0.8332 -0.7820
  665SOL     OW 2128   0.298   2.617   0.859  0.4677 -0.9057  0.0398
  665SOL    HW1 2129   0.242   2.665   0.920  1.4627 -2.2141  2.0681
  665SOL    HW2 2130   0.366   2.679   0.834 -0.2682 -0.1891 -0.2363
  666SOL     OW 2131   0.375   3.420   2.889 -0.4314 -0.5655 -0.2496
  666SOL    HW1 2132   0.403   3.510   2.871 -0.8650  0.0573  1.9134
  666SOL    HW2 2133   0.336   3.391   2.807 -2.2453  1.9901 -0.4185
  667SOL     OW 2134   1.685   3.089   1.365  0.0552 -0.1377 -0.0788
  667SOL    HW1 2135   1.600   3.072   1.325  0.7055 -1.0521 -1.1191
  667SOL    HW2 2136   1.704   3.009   1.415  1.2483 -0.8740 -1.6136
  668SOL     OW 2137   3.477   2.778   0.601 -0.4693 -0.1592 -0.2102
  668SOL    HW1 2138   3.568   2.800   0.618 -0.5970  0.3175 -0.1298
  668SOL    HW2 2139   3.428   2.819   0.673 -0.8016  0.0709 -0.5648
  669SOL     OW 2140   1.255   0.424   3.582 -0.1220  0.0785 -0.2167
  669SOL    HW1 2141   1.219   0.511   3.564  0.7613  1.0844  2.4037
  669SOL    HW2 2142   1.332   0.417   3.525  0.0367  1.2001 -0.1531
  670SOL     OW 2143   0.940   1.118   3.285 -0.4356  0.2259 -0.1589
  670SOL    HW1 2144   1.029   1.092   3.261 -0.8334 -0.9912 -0.3955
  670SOL    HW2 2145   0.891   1.113   3.202 -0.6016  1.5138 -0.1614
  671SOL     OW 2146   1.053   1.239   0.161 -0.9462  0.5592 -0.3895
  671SOL    HW1 2147   1.127   1.299   0.169 -0.3097 -0.2284 -0.1226
  671SOL    HW2 2148   1.077   1.181   0.089  0.2561 -1.7375  1.7116
  672SOL     OW 2149   1.046   0.941   3.526 -0.5057  0.1386 -0.3029
  672SOL    HW1 2150   1.134   0.939   3.564 -0.5288  1.5752 -0.1127
  672SOL    HW2 2151   1.053   0.890   3.446  0.9431  1.5951 -1.1621
  673SOL     OW 2152   2.088   0.293   1.642  0.0921 -0.3907  0.4804
  673SOL    HW1 2153   2.163   0.234   1.632 -0.3943 -0.8892 -0.3031
  673SOL    HW2 2154   2.022   0.258   1.583  0.1584  1.5682 -0.8462
  674SOL     OW 2155   0.671   3.498   3.612 -0.3319 -0.1413  0.3877
  674SOL    HW1 2156   0.683   3.561   3.541 -2.2404 -0.6708 -0.4862
  674SOL    HW2 2157   0.673   3.552   3.691 -0.4217  0.8051 -0.2288
  675SOL     OW 2158   3.244   1.271   2.687 -0.2015 -0.2141  0.2094
  675SOL    HW1 2159   3.222   1.342   2.748  1.9447  1.1504 -0.4664
  675SOL    HW2 2160   3.329   1.297   2.651 -0.5728 -1.8522 -2.0479
  676SOL     OW 2161   1.884   1.508   0.815 -0.1385  0.1887  0.3192
  676SOL    HW1 2162   1.887   1.413   0.801 -1.6953  0.0727  0.6146
  676SOL    HW2 2163   1.830   1.519   0.893  0.8126  1.2894  0.8507
  677SOL     OW 2164   2.757   3.614   2.711 -0.3245  0.5537 -0.5882
  677SOL    HW1 2165   2.665   3.601   2.733 -0.6111  1.2900 -1.2964
  677SOL    HW2 2166   2.805   3.577   2.785 -1.0964 -2.4429 -1.4418
  678SOL     OW 2167   0.749   0.330   0.950 -0.3006  0.1202  0.3690
  678SOL    HW1 2168   0.817   0.347   0.885  0.1626 -1.7063  0.2979
  678SOL    HW2 2169   0.795   0.286   1.022 -1.5069 -2.2990 -0.2046
  679SOL     OW 2170   1.717   1.028   0.368 -0.1349  0.3389  0.0478
  679SOL    HW1 2171   1.776   1.037   0.442  1.5196 -2.5673 -0.7535
  679SOL    HW2 2172   1.648   0.968   0.399  0.0564 -0.1535 -0.4536
  680SOL     OW 2173   2.366   2.855   0.394 -0.0943  0.0701 -0.4739
  680SOL    HW1 2174   2.303   2.915   0.356  0.7219  1.4833  0.3353
  680SOL    HW2 2175   2.320   2.771   0.398 -0.9464  0.3727 -2.4802
  681SOL     OW 2176   0.060   1.751   1.084  1.0919 -0.1311  0.2285
  681SOL    HW1 2177   0.065   1.667   1.128  0.1599  0.6492  1.9127
  681SOL    HW2 2178  -0.012   1.797   1.127  1.2690  1.3516 -0.9686
  682SOL     OW 2179   0.601   3.573   2.416  0.2101 -0.9517  0.2797
  682SOL    HW1 2180   0.675   3.578   2.355  1.4400  2.1083  1.8160
  682SOL    HW2 2181   0.563   3.660   2.414 -1.6087 -1.6550  1.7118
  683SOL     OW 2182   1.570   0.600   0.893  0.2392 -0.1879 -0.1888
  683SOL    HW1 2183   1.663   0.599   0.916 -0.0288 -1.8549  1.0378
  683SOL    HW2 2184   1.533   0.673   0.942  0.3470 -1.5222  1.9899
  684SOL     OW 2185   1.616   1.449   1.744 -0.0502 -0.2268 -0.6605
  684SOL    HW1 2186   1.643   1.528   1.791  0.5831 -1.2099  0.7213
  684SOL    HW2 2187   1.670   1.448   1.665 -0.2928  0.8658 -0.8487
  685SOL     OW 2188   2.985   0.689   3.617 -0.1574  0.7236  0.2354
  685SOL    HW1 2189   2.938   0.616   3.657  1.5515 -1.2590 -1.1844
  685SOL    HW2 2190   2.922   0.726   3.554 -1.0643  0.5357  1.0132
  686SOL     OW 2191   0.899   3.291   1.657  0.1406 -0.7596  0.2632
  686SOL    HW1 2192   0.828   3.247   1.610 -0.3776 -0.2492  0.5702
  686SOL    HW2 2193   0.970   3.297   1.592 -0.3036 -0.7247 -0.2246
  687SOL     OW 2194   3.311   0.410   1.218 -0.4433  0.5223  0.5466
  687SOL    HW1 2195   3.379   0.438   1.279 -0.0338  0.3417  0.1832
  687SOL    HW2 2196   3.359   0.372   1.144 -0.9703 -0.6317  0.7840
  688SOL     OW 2197   1.817   2.013   0.681 -0.1129 -0.2801 -0.4780
  688SOL    HW1 2198   1.734   2.047   0.649 -1.1471 -1.9049  0.3490
  688SOL    HW2 2199   1.869   2.092   0.700 -1.8764  0.8159  0.0724
  689SOL     OW 2200   1.562   1.044   1.953  0.1739 -0.2402  0.3969
  689SOL    HW1 2201   1.559   1.103   1.878 -0.5279 -1.6740 -0.7369
  689SOL    HW2 2202   1.655   1.028   1.968  0.3299  0.3080  0.0449
  690SOL     OW 2203   3.062   3.374   0.522 -0.4312  0.0541  0.4824
  690SOL    HW1 2204   3.120   3.347   0.451  0.6504  1.5607  0.7469
  690SOL    HW2 2205   3.007   3.442   0.484 -1.1441 -0.4585  0.5877
  691SOL     OW 2206   2.989   0.178   0.921 -0.2111 -0.0620  0.5878
  691SOL    HW1 2207   2.958   0.268   0.917 -2.9784 -0.9225  0.3803
  691SOL    HW2 2208   3.035   0.171   1.005  0.4276  1.5990  0.4047
  692SOL     OW 2209   1.346   2.487   1.705  0.2428 -0.1208 -0.2412
  692SOL    HW1 2210   1.426   2.501   1.757 -0.6907  0.9077  1.0091
  692SOL    HW2 2211   1.348   2.394   1.682  1.1240 -0.4355  0.9611
  693SOL     OW 2212   0.699   0.513   2.842  0.0353  0.3489  0.0846
  693SOL    HW1 2213   0.632   0.459   2.885  1.0253  0.5823  2.0137
  693SOL    HW2 2214   0.652   0.591   2.813 -1.0451 -0.6695 -1.1061
  694SOL     OW 2215   1.231   1.180   2.066  0.0508  0.0553  0.3007
  694SOL    HW1 2216   1.225   1.121   1.991 -0.0336  0.2953  0.1195
  694SOL    HW2 2217   1.228   1.267   2.028 -0.1706  0.1769  0.5988
  695SOL     OW 2218   1.736   0.088   3.599  0.3498  0.2524  0.1834
  695SOL    HW1 2219   1.748   0.167   3.547 -0.7182 -0.2781 -0.9308
  695SOL    HW2 2220   1.678   0.033   3.546  0.4719 -0.9689  1.2573
  696SOL     OW 2221   1.148   3.361   3.383 -0.1294 -0.0257 -0.1321
  696SOL    HW1 2222   1.188   3.295   3.327  0.8004 -0.2312  0.7475
  696SOL    HW2 2223   1.093   3.311   3.444  1.4303 -0.1402  1.2534
  697SOL     OW 2224   1.240   2.750   3.632  0.5231 -0.0018  0.3758
  697SOL    HW1 2225   1.242   2.654   3.633  0.0049 -0.0823 -1.7364
  697SOL    HW2 2226   1.297   2.774   3.559 -0.7282  1.2081 -0.2527
  698SOL     OW 2227   1.326   2.318   2.962  0.2268  0.3039  0.5786
  698SOL    HW1 2228   1.325   2.350   3.052 -1.6007 -1.6264  1.3389
  698SOL    HW2 2229   1.381   2.240   2.964  0.5609  0.5131 -0.0885
  699SOL     OW 2230   3.448   1.426   1.545 -0.4238  0.1448  0.3482
  699SOL    HW1 2231   3.395   1.498   1.579  0.9100  0.9295  0.8150
  699SOL    HW2 2232   3.454   1.364   1.618  2.7003  1.9697  1.8311
  700SOL     OW 2233   2.647   3.407   1.355  0.2463  1.1783  0.0699
  700SOL    HW1 2234   2.737   3.404   1.389  0.6595  0.5891 -1.0180
  700SOL    HW2 2235   2.598   3.456   1.421  1.3693  1.5152  0.6812
  701SOL     OW 2236   1.071   1.067   2.333  0.3230  0.0741 -0.1267
  701SOL    HW1 2237   1.073   1.006   2.259  1.1804 -1.4914  1.1158
  701SOL    HW2 2238   1.134   1.134   2.310  0.1755 -0.0805 -1.0476
  702SOL     OW 2239   0.256   2.197   2.076 -0.5863 -0.5261 -0.6991
  702SOL    HW1 2240   0.246   2.148   2.158 -0.8659 -2.3222 -1.7786
  702SOL    HW2 2241   0.347   2.185   2.052  0.5268  2.8662  1.0134
  703SOL     OW 2242   2.070   1.665   2.663  0.0221 -0.2670  0.1250
  703SOL    HW1 2243   1.985   1.651   2.704 -0.1260 -0.1073 -0.1223
  703SOL    HW2 2244   2.132   1.667   2.735 -0.1328 -0.7806  0.2791
  704SOL     OW 2245   2.823   2.288   2.431  0.2946 -0.3822  0.3000
  704SOL    HW1 2246   2.852   2.201   2.460  3.8750  0.4768 -0.2433
  704SOL    HW2 2247   2.754   2.270   2.367  0.5014 -2.7863  0.6350
  705SOL     OW 2248   2.369   1.101   0.162 -0.8775 -0.5005 -0.2644
  705SOL    HW1 2249   2.403   1.025   0.116 -1.7497 -0.9241 -0.2254
  705SOL    HW2 2250   2.276   1.103   0.141 -1.4291 -1.0344  1.8842
  706SOL     OW 2251   0.260   2.812   2.423 -0.3549  0.4944 -0.2316
  706SOL    HW1 2252   0.343   2.828   2.377 -0.0148  0.4088  0.3511
  706SOL    HW2 2253   0.247   2.717   2.417  0.4436  0.2783  1.1165
  707SOL     OW 2254   2.887   0.656   1.262 -0.5782 -0.4901 -0.1169
  707SOL    HW1 2255   2.930   0.713   1.326 -1.3134 -2.1326  1.9462
  707SOL    HW2 2256   2.954   0.639   1.196  1.2687 -1.2256  1.8645
  708SOL     OW 2257   0.402   0.676   0.165  0.1607  0.2820 -0.2185
  708SOL    HW1 2258   0.339   0.711   0.228 -0.3035  0.7590 -0.9426
  708SOL    HW2 2259   0.419   0.587   0.196  0.2671  0.6425  0.8244
  709SOL     OW 2260   0.131   0.997   0.691 -0.1091 -0.2596 -0.3817
  709SOL    HW1 2261   0.043   0.970   0.666 -0.2651 -0.0171 -0.0959
  709SOL    HW2 2262   0.189   0.937   0.643 -0.4378 -0.7812 -0.1334
  710SOL     OW 2263   2.707   1.758   1.637  0.0271 -0.3668 -0.2859
  710SOL    HW1 2264   2.662   1.835   1.672 -0.0912  0.0494 -1.2963
  710SOL    HW2 2265   2.638   1.708   1.594 -0.0171 -1.4059  0.9465
  711SOL     OW 2266   3.298   2.992   0.697 -0.3081 -0.4918 -0.0257
  711SOL    HW1 2267   3.374   3.042   0.669 -0.4232 -0.6766 -0.6880
  711SOL    HW2 2268   3.232   3.057   0.720 -0.0501 -0.3339  0.2552
  712SOL     OW 2269   0.668   0.798   2.830 -0.1491  0.1989  0.5112
  712SOL    HW1 2270   0.611   0.783   2.755  0.7635 -0.4699 -0.0611
  712SOL    HW2 2271   0.643   0.884   2.862 -1.1030  0.1452 -0.0636
  713SOL     OW 2272   3.286   2.385   0.795 -0.1123  0.2629 -0.5127
  713SOL    HW1 2273   3.258   2.475   0.811 -0.5966 -0.3027  2.2378
  713SOL    HW2 2274   3.331   2.359   0.875 -0.2146 -2.0384 -1.1338
  714SOL     OW 2275   1.269   0.601   2.834 -0.2649 -0.7097  0.8206
  714SOL    HW1 2276   1.345   0.544   2.820 -0.2587 -0.3525 -0.7280
  714SOL    HW2 2277   1.202   0.543   2.869  1.1054 -0.7780  3.6604
  715SOL     OW 2278   0.545   1.878   2.137 -0.0748  0.2250 -0.6462
  715SOL    HW1 2279   0.527   1.845   2.049  2.0717 -3.2809  0.0096
  715SOL    HW2 2280   0.623   1.931   2.128 -1.3056  2.0266 -1.1457
  716SOL     OW 2281   3.269   3.000   3.523  0.1993  0.1305  0.5874
  716SOL    HW1 2282   3.279   3.084   3.567 -1.0637  1.2204 -1.1009
  716SOL    HW2 2283   3.206   3.017   3.452  0.3479 -2.0952 -0.1508
  717SOL     OW 2284   1.819   1.635   0.214 -0.3824  0.3286  0.3747
  717SOL    HW1 2285   1.839   1.549   0.252 -1.7924 -1.0117 -1.7038
  717SOL    HW2 2286   1.897   1.658   0.164 -0.7443 -0.7630 -0.7348
  718SOL     OW 2287   3.064   3.020   3.349 -0.0573  0.5832  0.0608
  718SOL    HW1 2288   3.090   3.080   3.279  0.9537  0.5062  0.3514
  718SOL    HW2 2289   3.002   2.960   3.308  1.0361  0.1142 -0.9625
  719SOL     OW 2290   2.151   2.963   1.067  0.1485 -0.2151 -0.2515
  719SOL    HW1 2291   2.209   2.889   1.049  0.9712 -0.1801  1.9062
  719SOL    HW2 2292   2.063   2.925   1.070  0.4374 -0.9030 -0.2899
  720SOL     OW 2293   1.524   0.494   2.862  0.2258 -0.3937  0.4320
  720SOL    HW1 2294   1.534   0.431   2.933 -0.3057 -1.2829 -0.2712
  720SOL    HW2 2295   1.577   0.569   2.890  0.0036 -0.7116  1.7709
  721SOL     OW 2296   0.865   1.834   3.275  0.4092 -0.0038  0.1277
  721SOL    HW1 2297   0.871   1.811   3.368 -0.1452 -0.9681 -0.0653
  721SOL    HW2 2298   0.922   1.910   3.266  0.2587  0.2783  1.3154
  722SOL     OW 2299   3.385   1.335   0.937 -0.2366  0.1010 -0.1433
  722SOL    HW1 2300   3.435   1.313   0.858 -0.8303 -0.2808 -0.4217
  722SOL    HW2 2301   3.425   1.416   0.969  0.3239 -0.0011 -0.5615
  723SOL     OW 2302   3.221   1.153   1.098 -0.0403 -0.5588 -0.1738
  723SOL    HW1 2303   3.231   1.212   1.023  0.4530 -0.0599  0.2743
  723SOL    HW2 2304   3.309   1.118   1.114  0.2421  0.7050  1.2657
  724SOL     OW 2305   3.673   3.422   2.636  1.2043  0.3267 -0.4222
  724SOL    HW1 2306   3.635   3.352   2.582  2.9101  0.2355 -1.5586
  724SOL    HW2 2307   3.678   3.497   2.578  1.5260  0.7240  0.1146
  725SOL     OW 2308   3.300   2.313   0.398 -0.8642 -0.4002 -0.2378
  725SOL    HW1 2309   3.358   2.373   0.446 -0.1747 -0.6081 -0.7961
  725SOL    HW2 2310   3.326   2.323   0.306 -2.2693  0.0981 -0.6047
  726SOL     OW 2311   0.118   1.376   0.064  0.4812 -0.2120 -0.1143
  726SOL    HW1 2312   0.132   1.444  -0.002  0.1937 -0.1883 -0.1509
  726SOL    HW2 2313   0.049   1.411   0.121 -2.4395 -1.9607 -2.2838
  727SOL     OW 2314   1.755   3.536   1.735  0.4732 -0.2545 -0.0729
  727SOL    HW1 2315   1.671   3.565   1.768  0.0041  0.5151 -1.8242
  727SOL    HW2 2316   1.791   3.481   1.805 -3.0727 -3.7146 -0.6031
  728SOL     OW 2317   2.681   2.921   2.195 -0.3881 -1.1120 -0.2003
  728SOL    HW1 2318   2.717   2.929   2.284  0.8245 -2.5002 -0.5223
  728SOL    HW2 2319   2.731   2.985   2.144 -0.2450 -1.1520 -0.1140
  729SOL     OW 2320   2.238   3.065   2.223 -0.1770  0.3960  0.1984
  729SOL    HW1 2321   2.320   3.050   2.176  0.1508 -2.6389  1.5005
  729SOL    HW2 2322   2.200   3.142   2.181  2.2836  0.6163 -1.8746
  730SOL     OW 2323   1.075   3.236   0.409  0.4753  0.1722 -0.0715
  730SOL    HW1 2324   1.029   3.175   0.467  0.4581 -0.1396 -0.4042
  730SOL    HW2 2325   1.017   3.245   0.334  0.2534  0.9911  0.1911
  731SOL     OW 2326   2.269   0.182   2.382  0.6093  0.4100 -0.3786
  731SOL    HW1 2327   2.321   0.254   2.418  0.4618  0.0183  0.6571
  731SOL    HW2 2328   2.183   0.191   2.423  0.9053 -0.9632  0.6206
  732SOL     OW 2329   2.764   1.106   1.213  0.0118 -0.3291  0.6897
  732SOL    HW1 2330   2.725   1.022   1.237 -1.2335  0.4632  1.5776
  732SOL    HW2 2331   2.839   1.115   1.272 -0.7633 -0.1391  1.6677
  733SOL     OW 2332   3.653   1.237   1.117 -0.6060 -0.2926  0.4826
  733SOL    HW1 2333   3.598   1.290   1.174 -1.3307  0.0734 -0.5246
  733SOL    HW2 2334   3.599   1.162   1.094 -1.4350  0.9149 -1.9110
  734SOL     OW 2335   1.078   1.047   0.380  0.3853  0.4227 -0.1553
  734SOL    HW1 2336   1.080   1.140   0.403 -0.1817  0.5810 -0.7209
  734SOL    HW2 2337   1.146   1.037   0.313  0.2241  0.4918 -0.3278
  735SOL     OW 2338   2.177   2.186   0.256  0.5558  0.2325  0.5211
  735SOL    HW1 2339   2.168   2.111   0.197  0.1896 -0.1442  1.0448
  735SOL    HW2 2340   2.094   2.191   0.302  0.9457  0.3177  1.2344
  736SOL     OW 2341   3.453   3.055   0.257 -1.0674 -0.1194 -0.0390
  736SOL    HW1 2342   3.500   3.120   0.311 -2.5403  0.4095  0.6657
  736SOL    HW2 2343   3.481   3.074   0.168  0.1250  0.1094  0.3612
  737SOL     OW 2344   0.039   0.502   2.807  0.2684  0.1205  0.5229
  737SOL    HW1 2345   0.057   0.408   2.818  2.0740  0.3821  0.0758
  737SOL    HW2 2346  -0.036   0.505   2.748  0.4564 -1.0349  0.2047
  738SOL     OW 2347   3.666   1.127   1.401 -0.6612  0.1068 -0.4943
  738SOL    HW1 2348   3.687   1.149   1.311  1.5281 -0.5095 -0.1867
  738SOL    HW2 2349   3.690   1.034   1.410 -0.8119  0.1612  0.7125
  739SOL     OW 2350   2.990   2.228   0.008 -0.3843 -0.2319  0.0526
  739SOL    HW1 2351   2.998   2.313   0.050 -0.4036  0.1213 -0.6396
  739SOL    HW2 2352   2.897   2.220  -0.015 -0.2705 -0.1518 -0.4563
  740SOL     OW 2353   0.415   2.325   0.713  0.1621 -0.7310  0.2699
  740SOL    HW1 2354   0.343   2.278   0.670 -1.1642  3.6637 -3.1235
  740SOL    HW2 2355   0.377   2.359   0.794 -1.0645  0.0145 -0.5916
  741SOL     OW 2356   2.806   2.928   1.507  0.1305  0.7725  0.5463
  741SOL    HW1 2357   2.836   2.978   1.430  1.4023  1.5233  1.4902
  741SOL    HW2 2358   2.772   2.995   1.566 -0.0868  0.2816  0.9791
  742SOL     OW 2359   2.875   0.166   3.340 -0.6910  0.0156 -0.3128
  742SOL    HW1 2360   2.862   0.257   3.367  1.0875 -0.0645  0.9821
  742SOL    HW2 2361   2.846   0.115   3.416  0.4794 -0.3877 -0.1217
  743SOL     OW 2362   1.003   3.285   1.047 -0.0426 -0.1611  0.2775
  743SOL    HW1 2363   0.992   3.350   0.978 -0.9163 -0.5570  0.0299
  743SOL    HW2 2364   0.929   3.226   1.037  0.6866 -1.1560  0.5514
  744SOL     OW 2365   3.057   0.032   2.908  0.4213 -0.2848 -0.3026
  744SOL    HW1 2366   3.028   0.119   2.934 -0.4827 -0.7026  0.1169
  744SOL    HW2 2367   2.983  -0.025   2.927 -0.3474 -0.6414 -3.7244
  745SOL     OW 2368   0.789   1.078   1.501  0.0355 -0.1021 -0.3128
  745SOL    HW1 2369   0.786   1.095   1.595  0.0792  1.1792 -0.5255
  745SOL    HW2 2370   0.844   1.148   1.465 -2.0776  1.0238 -1.6036
  746SOL     OW 2371   2.842   2.015   1.741 -0.1707 -0.4686 -0.1762
  746SOL    HW1 2372   2.898   2.087   1.711  0.8276 -1.4308 -0.7106
  746SOL    HW2 2373   2.753   2.046   1.726  0.1527  1.4450  1.4718
  747SOL     OW 2374   3.575   0.350   3.020  0.1013 -0.2992  0.1910
  747SOL    HW1 2375   3.625   0.311   2.948  0.1396  0.7065 -0.3439
  747SOL    HW2 2376   3.508   0.402   2.976 -0.1637 -0.0481  0.8954
  748SOL     OW 2377   3.720   2.064   1.112 -0.3711  0.2453 -0.1821
  748SOL    HW1 2378   3.734   2.017   1.030  0.9173 -0.6651  0.5256
  748SOL    HW2 2379   3.667   2.004   1.165  1.0667 -0.3588  0.6289
  749SOL     OW 2380   2.982   1.816   0.426 -0.4567 -0.4459 -0.1350
  749SOL    HW1 2381   2.965   1.910   0.429 -0.8903 -0.4667 -1.2965
  749SOL    HW2 2382   3.062   1.808   0.374 -1.0392 -0.7630 -1.0116
  750SOL     OW 2383   1.918   2.715   3.192  0.2911  0.4262  0.0629
  750SOL    HW1 2384   1.846   2.655   3.174  1.2457 -0.5502 -0.6885
  750SOL    HW2 2385   1.902   2.790   3.134  0.3145 -0.1651 -0.7269
  751SOL     OW 2386   1.978   2.398   2.655  0.0936  0.8403 -0.0895
  751SOL    HW1 2387   1.934   2.431   2.733  1.8657  1.2167  0.8133
  751SOL    HW2 2388   1.987   2.474   2.598  0.0211  0.8772 -0.0506
  752SOL     OW 2389   0.518   2.724   0.742  0.1887 -0.1105 -0.1139
  752SOL    HW1 2390   0.594   2.678   0.776 -0.3087 -0.0648  1.1017
  752SOL    HW2 2391   0.540   2.817   0.749  0.4425 -0.1183 -0.7771
  753SOL     OW 2392   2.911   0.522   2.215  0.3596  0.2516 -0.0885
  753SOL    HW1 2393   2.959   0.551   2.293  0.4160  0.6838 -0.2752
  753SOL    HW2 2394   2.896   0.429   2.228  0.7378  0.2356  0.2469
  754SOL     OW 2395   1.234   1.772   3.530 -0.0203 -0.2735  0.2193
  754SOL    HW1 2396   1.141   1.770   3.555  0.2129  1.4887  1.4760
  754SOL    HW2 2397   1.280   1.758   3.613  0.8373 -0.9110 -0.3610
  755SOL     OW 2398   2.519   0.225   1.276  0.0318  0.0690  0.7882
  755SOL    HW1 2399   2.504   0.284   1.202 -0.5705  0.4693  1.2225
  755SOL    HW2 2400   2.614   0.230   1.291  0.2729 -0.5502 -0.3815
  756SOL     OW 2401   1.204   0.014   2.533  0.4853 -0.0167  0.4706
  756SOL    HW1 2402   1.192   0.061   2.615  2.4253  1.9411 -0.2559
  756SOL    HW2 2403   1.211   0.083   2.467 -1.5494 -1.5329 -1.4776
  757SOL     OW 2404   1.104   2.826   2.356  0.5203  0.6014 -0.6041
  757SOL    HW1 2405   1.106   2.732   2.337 -0.1588  0.3625  0.4258
  757SOL    HW2 2406   1.060   2.865   2.280  2.0171  0.2725 -1.6662
  758SOL     OW 2407   1.891   2.285   3.374  0.1509  0.4164 -0.1522
  758SOL    HW1 2408   1.861   2.195   3.392 -0.2930  0.2625 -1.5608
  758SOL    HW2 2409   1.812   2.338   3.383  0.2914  0.5842  0.0949
  759SOL     OW 2410   0.374   2.378   2.671 -0.2834 -0.1941  0.2111
  759SOL    HW1 2411   0.430   2.439   2.719 -0.1934  0.0147 -0.1601
  759SOL    HW2 2412   0.293   2.426   2.656 -0.3117 -0.2608  0.1516
  760SOL     OW 2413   0.411   0.599   2.870 -0.2091  0.0723 -0.2784
  760SOL    HW1 2414   0.347   0.660   2.833  2.1082  1.8774 -1.6240
  760SOL    HW2 2415   0.377   0.512   2.849 -1.8865  0.9782 -1.5070
  761SOL     OW 2416   0.557   3.507   1.377  0.7134  0.4184  0.1662
  761SOL    HW1 2417   0.531   3.513   1.469  1.0709  0.1798  0.2863
  761SOL    HW2 2418   0.652   3.497   1.380  0.6564 -0.2924 -0.1985
  762SOL     OW 2419   2.334   0.509   3.227 -0.1389  0.7083  0.2235
  762SOL    HW1 2420   2.416   0.558   3.218  0.3959 -0.1455  0.2788
  762SOL    HW2 2421   2.299   0.503   3.138  0.8893 -0.6097 -0.1258
  763SOL     OW 2422   1.264   0.828   0.814  0.4174 -0.3868 -0.6395
  763SOL    HW1 2423   1.309   0.819   0.898  0.2772  1.2950 -0.3449
  763SOL    HW2 2424   1.318   0.889   0.764 -0.1687 -0.3776 -1.2718
  764SOL     OW 2425   1.654   2.632   2.472 -0.4009 -0.6842  0.2498
  764SOL    HW1 2426   1.748   2.626   2.456 -0.2026 -1.3860  1.4944
  764SOL    HW2 2427   1.635   2.726   2.474  0.5639 -0.4943  1.4113
  765SOL     OW 2428   0.886   1.133   2.082  0.0605  0.3672 -0.6961
  765SOL    HW1 2429   0.841   1.180   2.152 -0.6435 -1.2101 -0.0609
  765SOL    HW2 2430   0.944   1.199   2.043 -0.2077  1.5062  0.7510
  766SOL     OW 2431   1.369   1.588   2.965 -0.0138 -0.7561  0.2831
  766SOL    HW1 2432   1.280   1.552   2.967 -1.6715  2.8738  0.5708
  766SOL    HW2 2433   1.369   1.653   3.035  2.6006 -0.0088 -0.3217
  767SOL     OW 2434   2.514   0.464   0.780  0.6067 -0.1532  0.1879
  767SOL    HW1 2435   2.523   0.370   0.798 -0.0887 -0.1594  0.5621
  767SOL    HW2 2436   2.576   0.481   0.710  0.4169 -0.9946 -0.2015
  768SOL     OW 2437   3.673   0.826   1.769 -0.3586  0.3435  0.1003
  768SOL    HW1 2438   3.640   0.746   1.810  0.4237  0.8947  1.9329
  768SOL    HW2 2439   3.611   0.894   1.799 -0.1215  0.6620 -0.1351
  769SOL     OW 2440   1.736   0.039   2.713 -0.1942  0.2679  0.4292
  769SOL    HW1 2441   1.672   0.087   2.766 -0.8354 -0.1036  0.0108
  769SOL    HW2 2442   1.754   0.097   2.639  1.5983  1.3014  1.6120
  770SOL     OW 2443   2.192   1.425   2.993  0.4346  0.4901  0.2208
  770SOL    HW1 2444   2.176   1.340   3.034 -2.0417 -0.1201 -1.7559
  770SOL    HW2 2445   2.124   1.482   3.028 -1.6246 -0.0004 -2.6454
  771SOL     OW 2446   3.022   3.400   0.082  0.5105 -0.4884 -0.2937
  771SOL    HW1 2447   3.077   3.322   0.078 -0.8169 -1.4560 -0.4837
  771SOL    HW2 2448   3.049   3.452   0.006  0.7484 -1.2203 -0.7216
  772SOL     OW 2449   1.308   3.278   2.372 -0.7315 -0.2929  1.0025
  772SOL    HW1 2450   1.259   3.337   2.429 -1.3584  0.0315  0.1476
  772SOL    HW2 2451   1.317   3.327   2.290  1.1013 -0.3091  1.1563
  773SOL     OW 2452   3.019   0.629   2.804  0.4161 -0.4430  0.5609
  773SOL    HW1 2453   3.098   0.585   2.772  0.6849  0.0355  0.5591
  773SOL    HW2 2454   2.983   0.568   2.868 -0.2687 -1.5164 -0.8032
  774SOL     OW 2455   2.329   3.163   1.598 -0.3023 -0.1263 -0.2246
  774SOL    HW1 2456   2.279   3.088   1.630  2.4860 -0.9753  2.7598
  774SOL    HW2 2457   2.386   3.127   1.530  0.7899 -0.7021  0.9643
  775SOL     OW 2458   2.367   2.067   0.460  0.3805 -0.3527 -0.0553
  775SOL    HW1 2459   2.355   2.162   0.453 -1.5260 -0.4979  0.6861
  775SOL    HW2 2460   2.375   2.037   0.369  0.1640  0.4267 -0.3360
  776SOL     OW 2461   0.598   1.464   1.914 -0.5508 -0.6838 -0.2866
  776SOL    HW1 2462   0.597   1.382   1.865  1.5307 -1.2966  0.5803
  776SOL    HW2 2463   0.525   1.457   1.975 -1.5735 -1.0208 -1.5074
  777SOL     OW 2464   2.559   1.711   2.896 -0.3226  0.1543  1.0662
  777SOL    HW1 2465   2.589   1.649   2.962  1.0843 -1.1629 -0.6732
  777SOL    HW2 2466   2.619   1.785   2.903 -2.0316  1.4340  3.1790
  778SOL     OW 2467   3.169   3.493   0.754 -0.2116 -0.4033  0.0956
  778SOL    HW1 2468   3.138   3.476   0.665 -2.8065 -0.2324  0.8757
  778SOL    HW2 2469   3.206   3.582   0.750  0.8649 -0.8793 -1.0391
  779SOL     OW 2470   2.726   0.395   1.357 -0.3021  0.1566  0.1057
  779SOL    HW1 2471   2.772   0.360   1.281 -1.5377  2.5203 -1.8817
  779SOL    HW2 2472   2.776   0.474   1.380 -2.0401  1.5558 -0.7166
  780SOL     OW 2473   3.011   2.174   1.181 -0.1208 -0.8889 -0.0078
  780SOL    HW1 2474   3.057   2.177   1.266  1.1015 -0.3117 -0.6581
  780SOL    HW2 2475   2.919   2.179   1.204  0.0305 -3.0887  1.4402
  781SOL     OW 2476   3.373   1.761   2.146  0.4213 -0.1704 -0.6570
  781SOL    HW1 2477   3.317   1.705   2.092 -0.0753 -0.1255 -0.1949
  781SOL    HW2 2478   3.313   1.802   2.208  1.0500 -0.5885  0.2386
  782SOL     OW 2479   3.610   1.206   0.368  0.0182 -0.1329  0.3935
  782SOL    HW1 2480   3.667   1.132   0.346 -2.6042 -2.6397  1.4879
  782SOL    HW2 2481   3.645   1.239   0.451  2.6412  1.5725 -1.2266
  783SOL     OW 2482   2.536   3.547   0.507  0.3795 -0.5186 -0.0575
  783SOL    HW1 2483   2.566   3.638   0.497  1.1825 -0.7888 -0.1799
  783SOL    HW2 2484   2.531   3.514   0.417  0.9808 -0.8698  0.0315
  784SOL     OW 2485   1.511   1.326   2.871  0.1894  0.1493 -0.1295
  784SOL    HW1 2486   1.506   1.417   2.841  1.7761 -0.4425 -2.4791
  784SOL    HW2 2487   1.463   1.276   2.804 -3.5160 -0.6120  2.7122
  785SOL     OW 2488   0.404   1.591   0.812  0.3118  0.0494  0.1302
  785SOL    HW1 2489   0.486   1.540   0.813 -0.7298 -1.6996  0.9689
  785SOL    HW2 2490   0.336   1.527   0.793 -0.9636  1.3524  0.1228
  786SOL     OW 2491   0.401   0.072   2.414  0.5736  0.1053 -0.3584
  786SOL    HW1 2492   0.328   0.126   2.444  0.3206 -0.7581  0.6839
  786SOL    HW2 2493   0.370   0.031   2.333  1.1913  2.3376 -1.8005
  787SOL     OW 2494   2.458   3.473   0.249 -0.2396 -0.1348  0.1608
  787SOL    HW1 2495   2.484   3.435   0.165  0.8383  1.5500 -0.2998
  787SOL    HW2 2496   2.367   3.499   0.236 -0.4211 -0.8494 -0.1068
  788SOL     OW 2497   3.563   0.233   2.087 -0.1480  0.3955 -0.3095
  788SOL    HW1 2498   3.584   0.167   2.153 -1.9542  1.5455  1.5709
  788SOL    HW2 2499   3.577   0.317   2.133 -2.0358  1.2238 -1.1675
  789SOL     OW 2500   1.713   0.648   1.721  0.2332 -0.0836 -0.2761
  789SOL    HW1 2501   1.752   0.681   1.802 -0.9848  0.8582 -0.0423
  789SOL    HW2 2502   1.622   0.676   1.725 -0.2073 -1.2581 -1.3201
  790SOL     OW 2503   3.284   2.638   2.112  0.1718  0.8535 -0.3004
  790SOL    HW1 2504   3.218   2.581   2.151  1.3394  0.6266  1.4095
  790SOL    HW2 2505   3.243   2.668   2.030 -1.1811 -0.9804 -0.3696
  791SOL     OW 2506   1.834   1.201   0.910 -0.1005  0.1655 -0.2708
  791SOL    HW1 2507   1.854   1.154   0.828 -0.7135 -0.8097  0.1254
  791SOL    HW2 2508   1.832   1.133   0.977 -0.6237  0.8189  0.3937
  792SOL     OW 2509   2.257   1.977   1.807  0.4542 -0.2570 -0.2203
  792SOL    HW1 2510   2.278   2.070   1.815 -0.5863  0.0988 -1.3587
  792SOL    HW2 2511   2.177   1.967   1.859  1.7276 -1.0090  1.7211
  793SOL     OW 2512   3.506   3.289   1.755 -0.2557  0.2831  0.2588
  793SOL    HW1 2513   3.589   3.271   1.800  0.1513  0.9973 -0.1727
  793SOL    HW2 2514   3.532   3.314   1.666 -1.0462 -1.0579 -0.3695
  794SOL     OW 2515   2.743   0.430   1.944  0.0245 -0.0518 -0.0364
  794SOL    HW1 2516   2.784   0.509   1.979  1.7428 -0.7291 -0.4418
  794SOL    HW2 2517   2.708   0.457   1.859  0.6413  0.2734 -0.1932
  795SOL     OW 2518   0.936   2.330   1.875  0.3870  0.5196 -0.1693
  795SOL    HW1 2519   0.876   2.379   1.932  1.0752  2.0883 -0.7244
  795SOL    HW2 2520   0.991   2.281   1.935 -0.9110 -0.3307  0.3808
  796SOL     OW 2521   3.576   0.484   0.982 -0.4913 -0.3996  0.0535
  796SOL    HW1 2522   3.621   0.551   1.034  0.6757 -0.7567 -0.4674
  796SOL    HW2 2523   3.646   0.426   0.951 -1.5918 -2.6926  1.6287
  797SOL     OW 2524   0.481   2.292   2.970  0.1692  0.6026  0.2967
  797SOL    HW1 2525   0.394   2.331   2.975  0.8878  2.3378 -0.1923
  797SOL    HW2 2526   0.501   2.264   3.059 -0.2907  1.5569  0.7096
  798SOL     OW 2527   0.669   0.671   0.082  0.0488 -0.0589 -0.4093
  798SOL    HW1 2528   0.716   0.740   0.128 -0.1538 -0.1539 -0.0574
  798SOL    HW2 2529   0.587   0.662   0.129  0.8625 -1.8771  0.7683
  799SOL     OW 2530   2.322   2.772   3.466  0.3409  0.4619 -0.2501
  799SOL    HW1 2531   2.373   2.709   3.518  0.9762  0.7025 -0.5736
  799SOL    HW2 2532   2.287   2.720   3.394  0.3443  0.3492 -0.1712
  800SOL     OW 2533   0.735   0.954   3.383  0.2504 -0.4921 -0.3775
  800SOL    HW1 2534   0.815   1.005   3.396 -1.3368  1.7012  1.6937
  800SOL    HW2 2535   0.679   0.978   3.457 -2.3440 -1.8856 -1.7459
  801SOL     OW 2536   3.432   0.102   0.280  0.4453 -0.2674  0.4273
  801SOL    HW1 2537   3.397   0.187   0.253 -0.6108 -0.0440  2.3761
  801SOL    HW2 2538   3.355   0.044   0.283  0.7968 -0.6998  1.3233
  802SOL     OW 2539   2.378   0.261   1.638  0.1811  0.1146  0.0792
  802SOL    HW1 2540   2.438   0.305   1.577 -0.5204  1.2491  0.1714
  802SOL    HW2 2541   2.435   0.223   1.704  0.7722  3.4221  1.6602
  803SOL     OW 2542   2.253   2.360   2.594  0.3629  0.4015  0.2895
  803SOL    HW1 2543   2.275   2.443   2.552 -1.2123  0.9652  0.5205
  803SOL    HW2 2544   2.158   2.362   2.605  0.0585 -2.0559 -1.0157
  804SOL     OW 2545   0.453   1.568   1.658  0.0279  0.3624  0.2002
  804SOL    HW1 2546   0.437   1.659   1.632  1.6279  0.0170 -2.4091
  804SOL    HW2 2547   0.498   1.575   1.742  0.6481  2.0522 -0.2266
  805SOL     OW 2548   1.159   2.981   1.389 -0.6124 -0.0763  0.4196
  805SOL    HW1 2549   1.125   2.935   1.466  1.2101 -0.7986  0.8540
  805SOL    HW2 2550   1.188   2.910   1.331 -2.5626  0.4197 -1.3072
  806SOL     OW 2551   2.177   1.898   0.611 -0.7317  0.5023  0.2948
  806SOL    HW1 2552   2.128   1.895   0.528 -2.1625  0.7895  1.1024
  806SOL    HW2 2553   2.268   1.913   0.584 -0.9714 -0.5977 -1.2719
  807SOL     OW 2554   3.504   0.908   0.381  0.0301 -0.0318  0.1997
  807SOL    HW1 2555   3.582   0.902   0.327  1.1478  0.4222  1.7003
  807SOL    HW2 2556   3.432   0.914   0.319  1.0651 -1.6131 -1.2291
  808SOL     OW 2557   0.634   2.366   1.769 -0.1146 -0.2815 -0.0728
  808SOL    HW1 2558   0.590   2.438   1.724 -2.5081 -1.2557  0.5817
  808SOL    HW2 2559   0.637   2.392   1.861 -0.8815 -0.9476  0.1481
  809SOL     OW 2560   3.398   3.517   2.759  0.1414  0.3716 -0.4823
  809SOL    HW1 2561   3.479   3.503   2.807 -1.1765 -1.7218  1.3292
  809SOL    HW2 2562   3.398   3.451   2.690  1.0005  1.9352 -2.0755
  810SOL     OW 2563   0.537   0.789   2.156  0.0228  0.3847  0.1417
  810SOL    HW1 2564   0.484   0.819   2.230 -0.6829 -0.7356  0.1104
  810SOL    HW2 2565   0.540   0.865   2.098 -1.4649  0.5274  0.2007
  811SOL     OW 2566   0.317   0.632   0.855  0.2571 -0.1090 -0.4416
  811SOL    HW1 2567   0.368   0.695   0.905  2.1549 -1.3488 -0.7012
  811SOL    HW2 2568   0.300   0.675   0.771 -0.5942  0.9449  0.2505
  812SOL     OW 2569   1.220   2.409   2.531  0.0371  0.1269 -0.6274
  812SOL    HW1 2570   1.139   2.449   2.562 -0.7424 -0.6921 -1.5480
  812SOL    HW2 2571   1.196   2.368   2.447  1.4345  0.0009 -0.9816
  813SOL     OW 2572   3.500   2.076   0.568 -0.3571  0.2112  0.0199
  813SOL    HW1 2573   3.438   2.110   0.503 -0.4183  2.1136  1.0221
  813SOL    HW2 2574   3.584   2.073   0.522 -1.0282 -1.9763 -1.2206
  814SOL     OW 2575   0.297   1.306   3.018 -0.7617  0.4800  0.5900
  814SOL    HW1 2576   0.277   1.303   2.924  0.2589  0.2880  0.3636
  814SOL    HW2 2577   0.225   1.258   3.060 -1.5335  1.0715 -0.0320
  815SOL     OW 2578   1.965   3.098   1.440  0.1332  0.1194 -0.1153
  815SOL    HW1 2579   1.913   3.029   1.399 -1.2764  2.1917 -2.0551
  815SOL    HW2 2580   2.055   3.079   1.415 -0.5106  0.3632 -2.8866
  816SOL     OW 2581   1.362   1.366   1.561  0.1057  0.1019  0.1661
  816SOL    HW1 2582   1.343   1.459   1.550 -0.2222 -0.2425 -3.6972
  816SOL    HW2 2583   1.409   1.341   1.481  1.5285 -2.7758  1.7259
  817SOL     OW 2584   2.692  -0.011   1.433  0.3928 -0.1282  0.2201
  817SOL    HW1 2585   2.607   0.030   1.418 -0.2807 -1.6406 -0.3251
  817SOL    HW2 2586   2.756   0.058   1.416 -0.7247  1.1092  0.9013
  818SOL     OW 2587   0.240   1.840   0.764 -0.2947 -0.3264 -1.3413
  818SOL    HW1 2588   0.287   1.798   0.836 -0.3525  3.8012  1.4546
  818SOL    HW2 2589   0.150   1.850   0.796 -0.5653  0.7958 -2.3854
  819SOL     OW 2590   3.163   1.843   1.765 -0.2752 -0.4532  0.4408
  819SOL    HW1 2591   3.135   1.874   1.852  0.1864  1.8246 -0.1552
  819SOL    HW2 2592   3.201   1.921   1.724  1.0161 -1.8990 -1.1984
  820SOL     OW 2593   0.448   0.935   3.139 -0.3589 -0.1851  0.2786
  820SOL    HW1 2594   0.426   1.026   3.161  0.5210  0.2640 -0.6296
  820SOL    HW2 2595   0.543   0.929   3.152 -0.3249 -0.8216 -0.1854
  821SOL     OW 2596   3.629   3.359   1.519 -0.4832  0.1507 -0.1939
  821SOL    HW1 2597   3.712   3.350   1.472 -0.3577 -0.5636  0.1503
  821SOL    HW2 2598   3.564   3.377   1.451 -0.3378 -1.0846 -0.6679
  822SOL     OW 2599   0.887   0.070   0.346  0.0856  0.6929  0.2955
  822SOL    HW1 2600   0.938   0.151   0.346  0.2623  0.6218 -1.7009
  822SOL    HW2 2601   0.914   0.025   0.426  3.6349  0.4007 -0.8899
  823SOL     OW 2602   3.274   2.752   1.529 -0.1896 -1.0205 -0.2429
  823SOL    HW1 2603   3.249   2.772   1.438 -3.1723 -2.2021  0.2017
  823SOL    HW2 2604   3.241   2.825   1.580  3.1414  0.6207 -0.1168
  824SOL     OW 2605   1.423   2.770   3.031  0.6912 -0.3493 -0.1263
  824SOL    HW1 2606   1.328   2.775   3.019  0.8646 -0.7698 -1.8769
  824SOL    HW2 2607   1.441   2.828   3.106 -1.0574 -1.2097  1.0236
  825SOL     OW 2608   1.081   2.317   0.246  0.6690 -0.2079  0.2204
  825SOL    HW1 2609   1.040   2.242   0.202 -0.2991 -0.8194  2.0460
  825SOL    HW2 2610   1.117   2.280   0.327  2.8667  0.7670 -0.2471
  826SOL     OW 2611   0.067   0.523   3.134 -0.6722  0.2453 -0.3429
  826SOL    HW1 2612   0.087   0.604   3.086 -3.2517  0.3903 -1.3661
  826SOL    HW2 2613   0.067   0.549   3.226  1.6421  0.6152 -0.3936
  827SOL     OW 2614   1.357   1.988   3.390 -0.1059  1.1018 -0.4106
  827SOL    HW1 2615   1.296   1.923   3.423  0.3019  1.5831  1.3664
  827SOL    HW2 2616   1.443   1.955   3.413  0.3063  0.7823 -2.2624
  828SOL     OW 2617   1.290   0.019   3.514  1.3629 -0.3136 -0.5476
  828SOL    HW1 2618   1.244   0.057   3.589 -0.1481  0.3907 -1.7792
  828SOL    HW2 2619   1.314   0.094   3.460  1.7965 -0.8662 -1.1305
  829SOL     OW 2620   1.412   2.188   1.140  0.5132  0.7259 -0.5562
  829SOL    HW1 2621   1.469   2.111   1.138  1.0719  1.0976  0.4322
  829SOL    HW2 2622   1.427   2.231   1.056 -0.1097 -0.4434 -1.2974
  830SOL     OW 2623   0.074   0.619   0.418  0.0607 -0.8888 -0.4831
  830SOL    HW1 2624   0.076   0.578   0.332  1.2211 -1.8379 -0.0336
  830SOL    HW2 2625  -0.017   0.646   0.430  0.0821  0.2906 -2.4564
  831SOL     OW 2626   3.407   2.135   3.134 -0.1827  0.1288  0.7399
  831SOL    HW1 2627   3.367   2.153   3.219  0.9803  1.3589  1.0502
  831SOL    HW2 2628   3.464   2.210   3.118 -1.3755  0.6064 -1.7616
  832SOL     OW 2629   1.044   3.633   1.095 -0.0191 -0.1076 -0.1536
  832SOL    HW1 2630   0.959   3.663   1.062 -0.7304 -1.5419  0.2863
  832SOL    HW2 2631   1.089   3.713   1.122 -0.4741  0.8726 -2.0792
  833SOL     OW 2632   0.524   3.545   1.678  0.0320  0.3973 -0.3711
  833SOL    HW1 2633   0.428   3.543   1.677  0.0274  0.6123 -0.3345
  833SOL    HW2 2634   0.548   3.469   1.731 -0.2228  2.9336  3.7564
  834SOL     OW 2635   2.922   2.511   1.270  0.9672  0.4681 -0.5012
  834SOL    HW1 2636   2.887   2.600   1.262  1.8270  1.9439  5.9608
  834SOL    HW2 2637   2.855   2.455   1.231 -2.3363  3.7594 -0.0870
  835SOL     OW 2638   2.410   2.201   3.055 -0.8515  0.5535  1.0648
  835SOL    HW1 2639   2.337   2.259   3.031 -2.1532 -1.6374 -0.6183
  835SOL    HW2 2640   2.483   2.232   3.002 -1.8988 -0.0673 -0.8408
  836SOL     OW 2641   1.474   2.406   1.331  0.7261 -0.1178  0.0660
  836SOL    HW1 2642   1.436   2.412   1.243 -0.0353 -0.0539  0.3969
  836SOL    HW2 2643   1.477   2.312   1.349  2.1657 -0.2197 -0.5702
  837SOL     OW 2644   1.103   2.090   0.071  0.4472 -0.3076 -0.6016
  837SOL    HW1 2645   1.191   2.098   0.107  0.0453 -0.0319  0.3397
  837SOL    HW2 2646   1.116   2.094  -0.024  1.2347  2.2379 -0.4601
  838SOL     OW 2647   2.986   1.529   1.699 -0.1613 -0.2660 -0.0827
  838SOL    HW1 2648   2.953   1.588   1.767  1.3827  0.1407  0.3453
  838SOL    HW2 2649   3.030   1.459   1.748  2.9915  1.2019 -0.5931
  839SOL     OW 2650   0.393   3.133   0.113 -0.4836 -0.0424 -0.1014
  839SOL    HW1 2651   0.322   3.105   0.171  0.3492 -0.8300  0.5627
  839SOL    HW2 2652   0.400   3.065   0.047  0.3566 -0.5287  0.4696
  840SOL     OW 2653   2.310   1.195   1.844 -0.5543 -0.0927 -0.7710
  840SOL    HW1 2654   2.352   1.210   1.759  2.8398  2.3539  1.0912
  840SOL    HW2 2655   2.286   1.102   1.843  1.9489 -0.8471 -3.3414
  841SOL     OW 2656   0.180   2.785   1.597  0.1183  0.1857 -0.1813
  841SOL    HW1 2657   0.170   2.862   1.542  1.1293 -0.6167 -1.5361
  841SOL    HW2 2658   0.235   2.726   1.547 -0.4905 -1.3662  0.8913
  842SOL     OW 2659   2.765   1.588   0.052  0.3353  0.4584 -0.0891
  842SOL    HW1 2660   2.748   1.516   0.113  0.0561 -0.0380 -0.7462
  842SOL    HW2 2661   2.679   1.611   0.018  0.5672  0.2222 -0.8602
  843SOL     OW 2662   1.543   1.849   2.160 -0.4751  0.8653  0.2374
  843SOL    HW1 2663   1.571   1.921   2.216  0.9874 -1.0356  2.1214
  843SOL    HW2 2664   1.593   1.861   2.079  0.9178  1.1360  1.1088
  844SOL     OW 2665   2.811   0.858   1.008  0.2980 -0.2907 -0.0449
  844SOL    HW1 2666   2.750   0.919   1.051  0.3695 -0.9695  1.0665
  844SOL    HW2 2667   2.898   0.885   1.040  0.3679 -0.6925  0.1114
  845SOL     OW 2668   3.311   1.530   3.157 -0.8052 -0.4597 -0.6251
  845SOL    HW1 2669   3.306   1.470   3.231 -1.7340  0.8372  0.4135
  845SOL    HW2 2670   3.222   1.564   3.146 -0.2876  0.8486 -1.0585
  846SOL     OW 2671   0.348   1.249   2.762 -0.4151 -0.1950  0.3472
  846SOL    HW1 2672   0.348   1.159   2.796  0.0855 -0.4268 -0.2542
  846SOL    HW2 2673   0.431   1.257   2.716 -1.5179 -0.2352 -1.7547
  847SOL     OW 2674   1.793   2.024   3.406  0.4245 -0.0490  0.0596
  847SOL    HW1 2675   1.844   2.016   3.487  0.8557 -0.2446 -0.2251
  847SOL    HW2 2676   1.842   1.971   3.342 -0.8194 -1.3120  0.1009
  848SOL     OW 2677   3.584   2.895   0.954 -0.2551  0.3656  0.0704
  848SOL    HW1 2678   3.497   2.859   0.972 -1.0674  1.4420 -1.4000
  848SOL    HW2 2679   3.638   2.819   0.934 -0.2373 -0.5320  3.0593
  849SOL     OW 2680   3.386   0.527   3.374  0.1037  0.1603  0.6540
  849SOL    HW1 2681   3.344   0.565   3.451 -0.1232 -2.3745  1.8709
  849SOL    HW2 2682   3.314   0.512   3.312 -0.4664 -1.7411  1.7004
  850SOL     OW 2683   3.264   2.223   2.446 -0.6012 -0.0132  0.2509
  850SOL    HW1 2684   3.358   2.233   2.457 -0.6693 -0.8499  1.8475
  850SOL    HW2 2685   3.237   2.299   2.395  0.7763  0.7706  0.6624
  851SOL     OW 2686   1.430   1.888   1.047  0.5067  0.4020  0.3380
  851SOL    HW1 2687   1.379   1.856   0.973  1.0370 -0.4415  0.3150
  851SOL    HW2 2688   1.517   1.903   1.011  0.5055  0.9845  0.5702
  852SOL     OW 2689   1.258   2.836   0.641 -0.0791 -0.3590  0.1764
  852SOL    HW1 2690   1.298   2.882   0.567 -0.8657 -0.8230 -0.5563
  852SOL    HW2 2691   1.301   2.750   0.641  0.5045 -0.0783  0.7806
  853SOL     OW 2692   2.132   3.443   0.561 -0.2133  0.1943 -0.3949
  853SOL    HW1 2693   2.055   3.477   0.607 -0.6282 -1.6323  0.3490
  853SOL    HW2 2694   2.168   3.377   0.620  1.2929  0.2493 -1.2139
  854SOL     OW 2695   0.341   1.001   1.955  0.0489  0.1947  0.6363
  854SOL    HW1 2696   0.418   0.945   1.962  0.5763  0.5721 -1.5436
  854SOL    HW2 2697   0.272   0.942   1.924 -1.0622 -0.4835  3.9411
  855SOL     OW 2698   1.095   2.398   1.154 -0.4660 -0.1471 -0.6515
  855SOL    HW1 2699   1.073   2.361   1.069  1.4020 -0.8541 -0.8614
  855SOL    HW2 2700   1.022   2.373   1.211 -2.2034  1.1089 -2.2028
  856SOL     OW 2701   3.123   1.392   0.760 -0.1297  0.0630  0.2910
  856SOL    HW1 2702   3.201   1.353   0.799 -0.7807 -0.5809  1.0073
  856SOL    HW2 2703   3.150   1.419   0.672  0.9805  0.1712  0.6442
  857SOL     OW 2704   0.877   1.785   3.538 -0.3046  0.1488  0.4181
  857SOL    HW1 2705   0.899   1.821   3.624  1.1181 -1.5038  0.8028
  857SOL    HW2 2706   0.896   1.692   3.545 -1.3021 -0.2398 -1.3501
  858SOL     OW 2707   3.302   0.447   0.892  0.4636  0.2764 -0.0541
  858SOL    HW1 2708   3.292   0.536   0.925  0.0871 -0.3099  1.4876
  858SOL    HW2 2709   3.397   0.433   0.889  0.5412  0.8367 -0.6927
  859SOL     OW 2710   0.590   0.579   0.734  0.3330 -0.3639  0.4108
  859SOL    HW1 2711   0.638   0.499   0.713 -0.0506 -0.3681 -0.5310
  859SOL    HW2 2712   0.501   0.549   0.752  0.0157 -0.1152 -0.6191
  860SOL     OW 2713   2.894   2.865   3.051 -0.3533 -0.3363  0.0857
  860SOL    HW1 2714   2.845   2.891   3.129  1.6044 -0.0452  1.2726
  860SOL    HW2 2715   2.860   2.922   2.982 -1.4309  0.0895  0.9361
  861SOL     OW 2716   3.014   0.882   2.923  0.4186 -0.3980  0.4514
  861SOL    HW1 2717   3.015   0.811   2.858  1.1856 -0.5941  0.6634
  861SOL    HW2 2718   3.098   0.927   2.911  0.7087 -0.6278  1.4997
  862SOL     OW 2719   1.415   3.174   2.826 -0.4822 -0.0108  0.1210
  862SOL    HW1 2720   1.407   3.079   2.815  1.3944 -0.1819 -0.1331
  862SOL    HW2 2721   1.461   3.203   2.748 -0.0423  0.9412  0.7178
  863SOL     OW 2722   0.653   1.924   3.091  0.4660  0.1709 -0.5211
  863SOL    HW1 2723   0.692   1.922   3.003 -0.9139 -0.5872 -1.1418
  863SOL    HW2 2724   0.719   1.882   3.147  1.6791  1.3176 -1.0206
  864SOL     OW 2725   1.204   0.490   1.735 -0.0872 -1.0522  0.1948
  864SOL    HW1 2726   1.144   0.560   1.708 -0.0438 -0.6661  1.0504
  864SOL    HW2 2727   1.202   0.427   1.663  2.1481  1.1990 -2.0363
  865SOL     OW 2728   2.205   3.034   1.362  0.0012  0.1606 -0.1109
  865SOL    HW1 2729   2.300   3.031   1.368 -0.0369 -1.5102  0.0154
  865SOL    HW2 2730   2.184   2.979   1.287 -0.9742 -1.5283  1.3453
  866SOL     OW 2731   1.212   1.442   2.614 -0.0614 -0.1866  0.5777
  866SOL    HW1 2732   1.147   1.511   2.601  0.7220  0.1529 -2.4563
  866SOL    HW2 2733   1.294   1.488   2.631  0.3093 -0.3549 -0.6515
  867SOL     OW 2734   1.864   0.686   1.109  0.4366  0.5230  0.3094
  867SOL    HW1 2735   1.805   0.614   1.129 -1.0627  0.7453 -2.7231
  867SOL    HW2 2736   1.935   0.646   1.059 -0.4571  1.0666 -1.4803
  868SOL     OW 2737   2.189   3.003   1.905 -0.5559 -0.0289  0.6156
  868SOL    HW1 2738   2.156   3.092   1.899 -0.2373  0.3651  3.3412
  868SOL    HW2 2739   2.274   3.012   1.949  0.1804 -1.5598 -0.4208
  869SOL     OW 2740   0.317   3.273   1.801 -0.4177 -0.0186  0.0208
  869SOL    HW1 2741   0.276   3.190   1.827  1.0672 -0.1820  2.0370
  869SOL    HW2 2742   0.260   3.340   1.838 -0.5858 -0.1728  0.0454
  870SOL     OW 2743   1.328   0.589   0.096  0.0454  0.5367  0.3006
  870SOL    HW1 2744   1.321   0.584   0.192 -1.0261 -0.3105  0.2064
  870SOL    HW2 2745   1.310   0.499   0.067  1.2591  0.5833 -0.6658
  871SOL     OW 2746   0.278   2.767   0.102  0.0395 -0.0735  0.7168
  871SOL    HW1 2747   0.200   2.822   0.103  1.1718  1.6016  0.2887
  871SOL    HW2 2748   0.300   2.755   0.194  0.0669  0.6219  0.8066
  872SOL     OW 2749   1.319   2.210   2.195 -0.1039  0.3164 -0.6810
  872SOL    HW1 2750   1.383   2.242   2.131  0.7695 -0.5690 -0.2761
  872SOL    HW2 2751   1.367   2.144   2.246 -0.6015  1.3626  1.2375
  873SOL     OW 2752   2.598   3.103   1.162  0.3457  0.0275 -0.0979
  873SOL    HW1 2753   2.528   3.167   1.153 -0.1654 -0.6791 -1.3006
  873SOL    HW2 2754   2.575   3.032   1.102  0.2462 -1.9068  2.0784
  874SOL     OW 2755   1.226   1.096   2.854  0.0967 -0.2025 -0.4690
  874SOL    HW1 2756   1.308   1.062   2.816 -0.7745  0.2312 -2.9291
  874SOL    HW2 2757   1.165   1.097   2.780 -1.8785  0.3346  1.1123
  875SOL     OW 2758   0.683   1.483   2.811 -0.3286  0.3758 -0.1715
  875SOL    HW1 2759   0.623   1.453   2.742 -0.5090 -0.1604  0.2133
  875SOL    HW2 2760   0.742   1.410   2.825  0.7073  1.0496 -0.8381
  876SOL     OW 2761   1.972   2.945   2.929 -0.1168 -0.4675  0.2544
  876SOL    HW1 2762   1.984   3.019   2.868  0.5032  0.4096  1.4099
  876SOL    HW2 2763   1.894   2.968   2.979 -0.3694 -0.9828  0.1096
  877SOL     OW 2764   2.160   0.874   0.370  0.0394  0.2794 -0.1807
  877SOL    HW1 2765   2.147   0.841   0.281 -0.3353 -1.4268  0.4640
  877SOL    HW2 2766   2.191   0.797   0.419 -2.1181  0.5126  1.7064
  878SOL     OW 2767   0.305   0.788   1.609  0.5711 -0.2815 -0.8453
  878SOL    HW1 2768   0.322   0.881   1.596 -2.4873  0.3506 -0.9160
  878SOL    HW2 2769   0.266   0.783   1.697 -2.0305 -0.9951 -1.9523
  879SOL     OW 2770   3.269   0.179   2.387  0.1777  0.0189 -0.6455
  879SOL    HW1 2771   3.260   0.121   2.311  0.5414  0.0252 -0.6931
  879SOL    HW2 2772   3.265   0.120   2.462  1.6440 -0.2099 -0.7226
  880SOL     OW 2773   3.185   2.170   3.328 -0.5481  0.4616 -0.0327
  880SOL    HW1 2774   3.179   2.260   3.360 -0.7081  0.3533  0.2524
  880SOL    HW2 2775   3.187   2.117   3.408 -1.2849  0.1666 -0.2007
  881SOL     OW 2776   0.914   1.888   1.492 -0.0051  0.2599  0.2694
  881SOL    HW1 2777   0.822   1.905   1.515 -0.4000  1.1783 -1.8057
  881SOL    HW2 2778   0.963   1.954   1.542 -0.5454  0.3584  0.6806
  882SOL     OW 2779   2.674   2.044   0.996 -0.2081 -0.1538  0.3843
  882SOL    HW1 2780   2.660   2.063   1.089  1.7057 -0.0905  0.7101
  882SOL    HW2 2781   2.747   1.982   0.996  0.1483  0.2313 -1.0986
  883SOL     OW 2782   0.998   3.107   3.367  0.1831  0.2598  0.4650
  883SOL    HW1 2783   0.915   3.072   3.336 -0.2078  1.9630 -0.5718
  883SOL    HW2 2784   1.028   3.045   3.433 -1.1172 -1.2211 -0.2865
  884SOL     OW 2785   2.800   0.219   0.206 -0.0219 -0.0151 -0.0327
  884SOL    HW1 2786   2.803   0.247   0.297  0.2380  0.4592 -0.1820
  884SOL    HW2 2787   2.878   0.164   0.194 -0.2420 -0.3652  0.1177
  885SOL     OW 2788   0.414   1.602   3.280 -0.6608 -0.0678 -0.4604
  885SOL    HW1 2789   0.444   1.631   3.367  0.2017 -0.8873 -0.4683
  885SOL    HW2 2790   0.351   1.533   3.299  1.2737 -1.9451 -0.4479
  886SOL     OW 2791   2.592   1.120   2.812 -0.3996 -0.1560  0.7553
  886SOL    HW1 2792   2.497   1.108   2.814 -0.5110  0.2989 -0.6663
  886SOL    HW2 2793   2.603   1.206   2.771  0.6425 -0.4877  0.3326
  887SOL     OW 2794   0.595   1.235   3.399  1.0527  0.3487  0.1952
  887SOL    HW1 2795   0.639   1.313   3.432 -0.2157  1.4299 -0.5746
  887SOL    HW2 2796   0.588   1.248   3.305  1.7809 -1.2220 -0.1130
  888SOL     OW 2797   3.104   1.533   1.456 -0.4189  0.0837  0.3321
  888SOL    HW1 2798   3.080   1.545   1.548  0.1976  1.5541  0.3224
  888SOL    HW2 2799   3.115   1.438   1.447  1.2979  0.0102  2.2724
  889SOL     OW 2800   1.914   2.107   3.646  0.4897 -0.4453 -0.3916
  889SOL    HW1 2801   2.002   2.080   3.672  1.6413  2.3342 -1.0404
  889SOL    HW2 2802   1.912   2.201   3.663 -2.6388 -0.5207  0.2378
  890SOL     OW 2803   0.197   3.150   2.097  0.5419  0.0981  0.1670
  890SOL    HW1 2804   0.202   3.087   2.169  2.0651 -0.8934 -0.7491
  890SOL    HW2 2805   0.288   3.174   2.079  0.4644 -1.3638 -2.8041
  891SOL     OW 2806   0.575   1.359   1.557  0.5411 -0.2253 -0.3759
  891SOL    HW1 2807   0.509   1.303   1.600  0.1102  0.7326  0.2456
  891SOL    HW2 2808   0.548   1.448   1.580  1.8214  0.1948 -0.4707
  892SOL     OW 2809   2.706   0.543   1.705 -0.3964  0.4558 -0.7036
  892SOL    HW1 2810   2.624   0.519   1.663 -1.5337  0.9065  1.1487
  892SOL    HW2 2811   2.696   0.635   1.729  0.8462  0.6513 -0.8294
  893SOL     OW 2812   0.887   3.245   1.967  0.5509 -0.3199 -0.0828
  893SOL    HW1 2813   0.870   3.257   1.874  1.2350  2.6747  0.0620
  893SOL    HW2 2814   0.838   3.167   1.991 -1.7451  0.2752 -2.4263
  894SOL     OW 2815   2.296   0.700   0.586 -0.4330 -0.1277 -0.1721
  894SOL    HW1 2816   2.319   0.610   0.564 -1.5394  0.0602 -2.3514
  894SOL    HW2 2817   2.209   0.693   0.625 -0.0883 -0.0713  0.6331
  895SOL     OW 2818   0.748  -0.016   3.439  0.3698 -0.4468 -0.5005
  895SOL    HW1 2819   0.836  -0.037   3.471  0.3998 -1.4925 -1.2221
  895SOL    HW2 2820   0.752   0.078   3.418  1.1831 -0.3839 -0.1262
  896SOL     OW 2821   2.855   3.541   3.222 -0.6236  0.2459 -0.3260
  896SOL    HW1 2822   2.914   3.472   3.252 -1.8268 -1.9497 -2.6023
  896SOL    HW2 2823   2.912   3.602   3.175  0.1074 -0.9096 -0.9929
  897SOL     OW 2824   0.261   0.646   2.391  0.3719 -0.7820 -0.2313
  897SOL    HW1 2825   0.238   0.686   2.475  0.0459 -2.5437  0.5669
  897SOL    HW2 2826   0.342   0.597   2.409  0.3091 -1.1657 -0.9363
  898SOL     OW 2827   1.718   0.751   2.757 -0.5484 -0.5533 -0.8347
  898SOL    HW1 2828   1.787   0.718   2.815 -0.6482 -0.3587 -0.6080
  898SOL    HW2 2829   1.709   0.682   2.691  0.7114 -0.0464 -1.5807
  899SOL     OW 2830   1.683   2.230   2.619 -0.1148  0.2531  0.6290
  899SOL    HW1 2831   1.759   2.171   2.627 -1.1506 -1.1621  0.3768
  899SOL    HW2 2832   1.720   2.312   2.587  1.1672 -0.7684 -0.6484
  900SOL     OW 2833   0.266   0.113   1.647 -0.3414  0.1869  0.1071
  900SOL    HW1 2834   0.286   0.027   1.684 -3.2983 -0.8021 -0.3535
  900SOL    HW2 2835   0.242   0.166   1.722  1.1597  0.5837  0.3519
  901SOL     OW 2836   2.290   2.079   1.423  0.1894 -0.1367  0.0638
  901SOL    HW1 2837   2.210   2.047   1.464  0.2453  0.5514  0.7213
  901SOL    HW2 2838   2.344   2.108   1.496  1.5437 -1.6742 -0.2754
  902SOL     OW 2839   0.719   3.137   1.563  0.6716 -0.3769  0.3534
  902SOL    HW1 2840   0.638   3.127   1.613 -0.0632  1.4223 -0.3930
  902SOL    HW2 2841   0.748   3.047   1.546 -1.4528 -1.1003  0.2135
  903SOL     OW 2842   0.585   3.278   1.868 -0.6232  0.6042  0.2427
  903SOL    HW1 2843   0.594   3.183   1.873 -0.7203  0.6481  2.3178
  903SOL    HW2 2844   0.505   3.293   1.819 -0.5085 -0.3803 -0.2576
  904SOL     OW 2845   1.084   1.665   1.395  0.7238 -0.3402  0.6494
  904SOL    HW1 2846   1.141   1.718   1.340  1.7716 -1.4062  0.6617
  904SOL    HW2 2847   1.004   1.717   1.406  0.3818 -0.1831 -2.0312
  905SOL     OW 2848   2.275   2.258   3.500 -0.0419  0.0659  0.8633
  905SOL    HW1 2849   2.367   2.287   3.504  0.3230 -1.0773  0.9209
  905SOL    HW2 2850   2.235   2.314   3.434  1.1949 -0.7477 -0.6267
  906SOL     OW 2851   0.323   1.138   3.359  0.3321 -0.2981 -0.3957
  906SOL    HW1 2852   0.381   1.178   3.294  2.4422  0.1238  1.6133
  906SOL    HW2 2853   0.289   1.213   3.408  1.0060 -0.7214  0.7463
  907SOL     OW 2854   2.859   2.846   2.659  0.0615 -0.3294  0.1449
  907SOL    HW1 2855   2.919   2.916   2.685 -0.5104  0.2277 -0.0251
  907SOL    HW2 2856   2.879   2.775   2.719 -1.0722  0.8448  2.0078
  908SOL     OW 2857   1.443   2.321   0.490 -0.9917  0.1954  0.8143
  908SOL    HW1 2858   1.477   2.407   0.513  1.0483 -0.4178  0.3893
  908SOL    HW2 2859   1.418   2.328   0.398  2.9717 -0.5380 -0.5576
  909SOL     OW 2860   0.563   1.269   1.276  0.1357 -0.5565 -0.1835
  909SOL    HW1 2861   0.587   1.256   1.367 -2.3858 -0.1470  0.6052
  909SOL    HW2 2862   0.599   1.355   1.253  1.7364 -1.1379  0.0270
  910SOL     OW 2863   2.533   2.949   3.408  0.7695  0.0870 -0.6990
  910SOL    HW1 2864   2.508   2.967   3.498 -0.4742  0.8737 -1.1682
  910SOL    HW2 2865   2.472   2.881   3.379  1.1974 -0.2015 -0.9342
  911SOL     OW 2866   1.333   2.235   1.703  0.0252  0.0219 -0.4081
  911SOL    HW1 2867   1.386   2.207   1.778  0.5383 -0.6358 -1.0073
  911SOL    HW2 2868   1.255   2.180   1.707  0.7025 -1.0247 -1.1674
  912SOL     OW 2869   1.858   0.036   3.280  0.3789  0.4607  0.1036
  912SOL    HW1 2870   1.902   0.085   3.350 -1.5448  2.0192  0.3232
  912SOL    HW2 2871   1.837  -0.048   3.320  1.6078  0.3237  0.5220
  913SOL     OW 2872   2.855   0.942   1.992  0.5181 -0.0318 -0.0832
  913SOL    HW1 2873   2.775   0.977   1.954  1.7951  1.4797 -1.4825
  913SOL    HW2 2874   2.825   0.893   2.070 -1.7956 -0.1772 -0.9931
  914SOL     OW 2875   3.538   2.413   0.279  0.1803 -0.0478  0.1903
  914SOL    HW1 2876   3.530   2.506   0.259 -0.2837 -0.0934  0.1419
  914SOL    HW2 2877   3.630   2.401   0.302  0.1783  0.4785  0.4888
  915SOL     OW 2878   1.109   2.106   1.947 -0.1525 -0.3318 -0.7477
  915SOL    HW1 2879   1.093   2.022   1.991  0.4343 -0.8165 -1.4364
  915SOL    HW2 2880   1.191   2.138   1.986 -0.6274  0.1733 -0.1351
  916SOL     OW 2881   2.989   3.271   1.954 -0.0389  0.1390 -0.2754
  916SOL    HW1 2882   3.081   3.273   1.928  0.1761 -0.3119  0.4183
  916SOL    HW2 2883   2.978   3.346   2.012  0.3304 -0.7600  1.0020
  917SOL     OW 2884   0.913   0.474   0.400  0.5150 -0.2891  0.9056
  917SOL    HW1 2885   0.972   0.405   0.370 -0.2059 -0.5450  0.0287
  917SOL    HW2 2886   0.972   0.545   0.426  1.2206 -0.2815 -0.5988
  918SOL     OW 2887   1.668   3.306   0.659  0.3867 -0.0719  0.3596
  918SOL    HW1 2888   1.608   3.282   0.588  0.5096  0.2172  0.1568
  918SOL    HW2 2889   1.636   3.390   0.691  0.2698 -0.2531  0.7192
  919SOL     OW 2890   2.582   2.146   1.935 -0.4302 -0.6004 -0.0338
  919SOL    HW1 2891   2.555   2.235   1.957 -2.4971 -1.0920 -0.3561
  919SOL    HW2 2892   2.678   2.148   1.940 -0.4940  0.9065  2.7050
  920SOL     OW 2893   3.240   1.033   2.850 -0.4049  0.3855  0.2995
  920SOL    HW1 2894   3.261   1.084   2.929 -1.4810  0.5745  0.4780
  920SOL    HW2 2895   3.245   1.096   2.778  0.8502  0.1542  0.1628
  921SOL     OW 2896   3.099   0.051   3.621 -0.2203 -0.7717  0.2506
  921SOL    HW1 2897   3.162   0.109   3.576 -0.5000  0.1477  1.0094
  921SOL    HW2 2898   3.131  -0.037   3.602  2.1666 -0.3291  1.7691
  922SOL     OW 2899   1.008   0.193   1.640 -0.0314 -0.2547  0.2176
  922SOL    HW1 2900   1.011   0.108   1.597  0.2185 -0.5451  0.7965
  922SOL    HW2 2901   1.002   0.256   1.568 -1.0700 -0.7918 -0.1907
  923SOL     OW 2902   0.607   0.392   1.683 -0.1321  0.1879  0.2163
  923SOL    HW1 2903   0.630   0.300   1.689 -1.3982 -0.1455  0.3489
  923SOL    HW2 2904   0.622   0.415   1.591 -0.3756 -0.3141  0.0486
  924SOL     OW 2905   0.671   1.151   2.722  0.5535  0.3202 -0.2095
  924SOL    HW1 2906   0.737   1.136   2.789  0.8944  0.1638 -0.5766
  924SOL    HW2 2907   0.705   1.107   2.644 -0.4011 -0.5209 -0.1703
  925SOL     OW 2908   1.452   0.533   1.206 -0.4095 -0.1975 -0.1245
  925SOL    HW1 2909   1.458   0.445   1.244  2.5273 -0.0891 -0.0928
  925SOL    HW2 2910   1.543   0.563   1.203 -1.2372  2.4126 -1.1816
  926SOL     OW 2911   1.063   1.548   0.312 -0.3010 -0.4930 -0.1065
  926SOL    HW1 2912   1.100   1.635   0.329 -0.9090 -0.3390  0.4641
  926SOL    HW2 2913   0.992   1.564   0.250 -0.8866 -0.4711  0.5509
  927SOL     OW 2914   2.420   1.524   1.012 -0.4016 -0.5831 -1.1343
  927SOL    HW1 2915   2.422   1.554   1.103 -2.6715 -0.3296 -1.1158
  927SOL    HW2 2916   2.512   1.506   0.991  0.2280 -0.2482  1.0571
  928SOL     OW 2917   2.141   1.990   0.038 -0.8129 -0.1799 -0.0096
  928SOL    HW1 2918   2.135   1.935   0.116  0.5173  0.5571  0.6441
  928SOL    HW2 2919   2.215   1.954  -0.011  0.1841  1.0584  0.5061
  929SOL     OW 2920   2.380   3.615   2.534  0.2174  0.2652  0.6070
  929SOL    HW1 2921   2.455   3.649   2.483  0.3710  1.1662  1.3914
  929SOL    HW2 2922   2.420   3.572   2.610 -0.0484  1.7049  1.6056
  930SOL     OW 2923   3.089   1.985   0.157  0.3204 -0.7721 -0.2346
  930SOL    HW1 2924   2.996   1.970   0.174  0.2318 -0.6968 -0.6347
  930SOL    HW2 2925   3.095   2.077   0.131  0.8013 -0.1955  1.7618
  931SOL     OW 2926   1.033   2.672   3.408  0.1848  0.1497  0.0288
  931SOL    HW1 2927   0.995   2.748   3.454 -0.3578  0.6335 -1.1906
  931SOL    HW2 2928   1.064   2.708   3.325 -0.4904 -1.0460 -0.7621
  932SOL     OW 2929   2.629   0.679   3.632 -0.0011  0.1005 -0.3488
  932SOL    HW1 2930   2.557   0.715   3.684  1.3318  0.1445  1.5714
  932SOL    HW2 2931   2.654   0.750   3.573 -1.4865  0.0863 -1.0328
  933SOL     OW 2932   1.960   2.645   1.744  0.2606 -0.6849 -0.2848
  933SOL    HW1 2933   1.954   2.732   1.703  3.4577 -0.2602 -0.1110
  933SOL    HW2 2934   1.965   2.663   1.838 -2.1412 -1.3482  0.0417
  934SOL     OW 2935   3.225   0.187   0.749 -0.8812  0.6053 -0.1914
  934SOL    HW1 2936   3.250   0.265   0.798 -0.5970  0.8120 -0.6651
  934SOL    HW2 2937   3.130   0.180   0.762 -0.5133 -0.7022  2.3739
  935SOL     OW 2938   2.249   2.530   0.868 -0.1587 -0.0430  0.1060
  935SOL    HW1 2939   2.290   2.452   0.906 -0.7031 -0.5339 -0.2956
  935SOL    HW2 2940   2.287   2.537   0.781 -1.4463 -0.9354 -0.5544
  936SOL     OW 2941   1.514   2.492   0.731 -0.1336 -0.2451 -0.1783
  936SOL    HW1 2942   1.609   2.504   0.727 -0.2952  0.8905 -1.7647
  936SOL    HW2 2943   1.501   2.428   0.800  1.7370  0.1268  0.5862
  937SOL     OW 2944   1.789   0.534   2.343  0.0289 -0.3094  0.0395
  937SOL    HW1 2945   1.764   0.491   2.261 -0.4371  0.1327 -0.0525
  937SOL    HW2 2946   1.714   0.522   2.401  0.1202 -0.0999  0.2026
  938SOL     OW 2947   2.545   2.636   1.160  0.4176  0.1659  0.2021
  938SOL    HW1 2948   2.502   2.722   1.163  1.7432  0.9028 -0.8280
  938SOL    HW2 2949   2.637   2.656   1.144  0.5935 -1.4844 -1.0903
  939SOL     OW 2950   2.342   2.078   2.159  0.5876 -0.3070 -0.3621
  939SOL    HW1 2951   2.407   2.072   2.229 -0.2202 -1.1876  0.3243
  939SOL    HW2 2952   2.382   2.032   2.085  0.8575 -0.6072 -0.0331
  940SOL     OW 2953   3.543   3.529   0.374 -0.7757 -0.4549 -0.8196
  940SOL    HW1 2954   3.574   3.604   0.323  1.4379 -0.5692  0.2544
  940SOL    HW2 2955   3.451   3.549   0.394  0.0906  2.6202  0.5572
  941SOL     OW 2956   1.181   2.767   1.978  0.0443  0.1705  0.0476
  941SOL    HW1 2957   1.238   2.844   1.979 -0.8506  0.8585 -0.4988
  941SOL    HW2 2958   1.202   2.720   2.059 -0.2518  1.6254  0.9975
  942SOL     OW 2959   1.386   2.723   1.004 -0.3836 -0.3945  0.1741
  942SOL    HW1 2960   1.465   2.697   1.051  1.9844  0.4598 -3.0225
  942SOL    HW2 2961   1.343   2.640   0.982  1.2704 -1.1023 -0.5730
  943SOL     OW 2962   3.604   2.156   2.782 -0.2843  0.1507 -0.2695
  943SOL    HW1 2963   3.564   2.104   2.852 -0.3096 -0.9900 -1.1049
  943SOL    HW2 2964   3.697   2.162   2.807  0.1274 -1.9358 -1.0672
  944SOL     OW 2965   3.626   3.209   1.249 -0.3038 -0.0363 -0.2970
  944SOL    HW1 2966   3.574   3.200   1.168 -0.5571  0.5971 -0.2133
  944SOL    HW2 2967   3.694   3.272   1.226 -1.0179  0.9902  0.2748
  945SOL     OW 2968   1.069   3.471   0.859  0.1340 -0.2448 -0.0156
  945SOL    HW1 2969   1.057   3.536   0.928 -1.3108 -0.4169 -0.0796
  945SOL    HW2 2970   1.143   3.504   0.808  0.8767  0.1521  1.2923
  946SOL     OW 2971   0.063   2.837   2.653 -0.5473 -0.1437  0.0113
  946SOL    HW1 2972   0.051   2.744   2.671 -0.9882  0.3594  2.7339
  946SOL    HW2 2973   0.158   2.848   2.644 -0.5702 -1.0089 -1.6238
  947SOL     OW 2974   0.433   3.471   2.574  0.5226  0.3696 -0.1181
  947SOL    HW1 2975   0.460   3.382   2.595 -1.0749 -0.8340 -2.7000
  947SOL    HW2 2976   0.491   3.497   2.501 -1.3198 -0.0313 -1.8021
  948SOL     OW 2977   1.324   0.798   1.590  0.4333  0.3521  0.0994
  948SOL    HW1 2978   1.256   0.866   1.583  0.5771  0.3750 -1.4110
  948SOL    HW2 2979   1.406   0.847   1.590  0.5268  0.2035 -0.6924
  949SOL     OW 2980   0.868   1.334   1.003 -0.3316 -0.2333 -0.4285
  949SOL    HW1 2981   0.917   1.374   0.931 -5.0052  1.2403 -3.2180
  949SOL    HW2 2982   0.869   1.401   1.072  1.1997 -0.1420 -0.5064
  950SOL     OW 2983   0.244   1.394   3.441  0.2704  0.1919 -0.1541
  950SOL    HW1 2984   0.162   1.443   3.437 -0.6757 -0.9534  2.3771
  950SOL    HW2 2985   0.302   1.449   3.493 -0.9766 -1.3097  3.1833
  951SOL     OW 2986   2.082   0.257   0.070  0.7008  0.3870 -0.5862
  951SOL    HW1 2987   2.018   0.315   0.027 -0.1932  1.9187  2.5000
  951SOL    HW2 2988   2.144   0.235   0.001 -1.0614  1.9364 -2.8369
  952SOL     OW 2989   1.001   2.135   0.735  0.1494  0.0689 -0.3226
  952SOL    HW1 2990   0.936   2.188   0.781 -0.2939 -1.6405  1.1317
  952SOL    HW2 2991   1.047   2.087   0.805  1.4981 -0.3825 -1.4705
  953SOL     OW 2992   1.914   0.453   3.663 -0.1107  0.0603  0.1144
  953SOL    HW1 2993   1.838   0.494   3.623  0.5308  0.9608 -0.2160
  953SOL    HW2 2994   1.909   0.478   3.756  0.0907  0.6155 -0.0195
  954SOL     OW 2995   3.538   0.627   1.851 -0.5963 -0.2667  0.4075
  954SOL    HW1 2996   3.452   0.652   1.886 -0.8178 -0.3866 -0.0344
  954SOL    HW2 2997   3.544   0.533   1.867  1.3398  0.3549  4.4307
  955SOL     OW 2998   1.829   1.652   2.756  0.2815  0.2291 -0.3654
  955SOL    HW1 2999   1.780   1.676   2.834 -1.5597  0.9068 -1.6620
  955SOL    HW2 3000   1.820   1.728   2.698  1.3459 -0.3811 -1.3688
  956SOL     OW 3001   1.224   1.559   1.110 -0.4452  0.5540 -0.0165
  956SOL    HW1 3002   1.129   1.547   1.115 -0.2027 -1.1274  1.8525
  956SOL    HW2 3003   1.249   1.593   1.196  0.7529 -0.0792 -0.0860
  957SOL     OW 3004   1.914   1.810   3.273  0.0132 -0.1081  0.0380
  957SOL    HW1 3005   1.909   1.858   3.191 -2.6288  0.6430  0.5247
  957SOL    HW2 3006   1.983   1.853   3.323  0.3299  0.6686 -1.0432
  958SOL     OW 3007   3.163   1.275   3.003  0.0863  0.8656  0.1446
  958SOL    HW1 3008   3.192   1.360   3.035 -0.5438  0.7687  1.0017
  958SOL    HW2 3009   3.068   1.283   2.995 -0.0416  0.0789  0.7415
  959SOL     OW 3010   2.494   0.097   1.834 -0.3682 -0.0378 -0.1421
  959SOL    HW1 3011   2.475   0.111   1.926 -0.7035  1.9431 -0.4682
  959SOL    HW2 3012   2.589   0.090   1.829 -0.3416 -0.0013  0.3232
  960SOL     OW 3013   2.929   0.039   2.014  0.5563 -0.3231 -0.0542
  960SOL    HW1 3014   2.960   0.129   2.004  1.3336 -0.5104  0.5230
  960SOL    HW2 3015   2.968  -0.008   1.940 -3.1487  0.5446 -2.8847
  961SOL     OW 3016   1.801   0.725   3.396  0.0941 -0.5303 -0.6915
  961SOL    HW1 3017   1.853   0.798   3.430  0.2506 -1.2743  0.7483
  961SOL    HW2 3018   1.852   0.691   3.323  1.2138 -0.7105  0.1577
  962SOL     OW 3019   1.633   0.373   2.177  0.2744  0.3802  0.0820
  962SOL    HW1 3020   1.566   0.393   2.110  0.0060  1.1216  0.5549
  962SOL    HW2 3021   1.662   0.285   2.156  0.3579  0.6842 -1.1608
  963SOL     OW 3022   1.085   0.464   2.507 -0.5005 -0.2551 -0.6414
  963SOL    HW1 3023   1.007   0.431   2.552 -0.7979  0.6043 -0.5237
  963SOL    HW2 3024   1.066   0.453   2.414  0.1147 -2.0368 -0.5976
  964SOL     OW 3025   1.994   0.334   1.897 -0.0318 -0.2442 -0.2386
  964SOL    HW1 3026   2.046   0.270   1.946 -0.3682 -1.3482 -1.2656
  964SOL    HW2 3027   2.031   0.333   1.809  1.0512  2.2690  0.1139
  965SOL     OW 3028   1.978   1.560   3.081  0.3509 -0.2266  0.5465
  965SOL    HW1 3029   1.936   1.582   3.164 -1.4047 -0.1525 -0.3020
  965SOL    HW2 3030   1.910   1.511   3.033  1.9524 -1.9292 -0.1174
  966SOL     OW 3031   0.306   1.292   0.710 -0.4876  0.0728  0.3283
  966SOL    HW1 3032   0.396   1.307   0.680 -0.8440  0.8012 -0.4000
  966SOL    HW2 3033   0.315   1.274   0.804  0.4065  0.2000  0.2788
  967SOL     OW 3034   2.896   1.498   2.990  0.0681  0.4982 -0.7971
  967SOL    HW1 3035   2.939   1.509   3.075 -1.4977  1.9193 -0.1090
  967SOL    HW2 3036   2.809   1.466   3.012 -1.2137  3.1222 -1.5719
  968SOL     OW 3037   1.176   0.961   2.599  0.4296 -0.0316  0.5941
  968SOL    HW1 3038   1.258   0.925   2.633 -0.1268 -0.4863  1.4797
  968SOL    HW2 3039   1.204   1.030   2.538  1.4682  0.5227  1.6493
  969SOL     OW 3040   1.941   1.468   0.393 -0.1702  0.3648  0.5273
  969SOL    HW1 3041   1.880   1.437   0.460  0.3617 -1.3833  0.2395
  969SOL    HW2 3042   1.986   1.542   0.434 -1.2543  0.5845  1.3600
  970SOL     OW 3043   3.492   2.186   3.587 -0.3162 -0.3117  0.2509
  970SOL    HW1 3044   3.567   2.245   3.579  0.6425 -0.9455  3.1359
  970SOL    HW2 3045   3.524   2.101   3.557  1.2731 -1.2746  3.9888
  971SOL     OW 3046   2.893   0.157   1.447  0.1884  0.0234 -0.1347
  971SOL    HW1 3047   2.963   0.194   1.393  0.5516 -0.3564  0.0709
  971SOL    HW2 3048   2.884   0.218   1.520 -1.3748  1.3954 -1.3882
  972SOL     OW 3049   1.671   2.662   0.953  0.2097 -0.2203  0.1001
  972SOL    HW1 3050   1.605   2.674   0.885  0.3334  1.9789  0.2932
  972SOL    HW2 3051   1.753   2.646   0.906 -0.3063 -2.5061 -0.1443
  973SOL     OW 3052   1.320   3.364   3.021  0.3688 -0.1366 -0.3350
  973SOL    HW1 3053   1.284   3.434   2.968  0.8170  0.2127 -0.1843
  973SOL    HW2 3054   1.378   3.316   2.962  0.5868  0.0316 -0.2572
  974SOL     OW 3055   2.268   2.615   0.318  0.1652 -0.0245  0.0606
  974SOL    HW1 3056   2.221   2.581   0.241 -0.1178  1.1660 -0.3186
  974SOL    HW2 3057   2.359   2.592   0.301  0.6850  3.1333 -2.4027
  975SOL     OW 3058   1.871   3.222   2.667 -0.0144  0.1169 -0.1090
  975SOL    HW1 3059   1.934   3.256   2.603  0.5306  1.6354  1.1562
  975SOL    HW2 3060   1.817   3.298   2.691 -0.6629 -0.5776  0.6955
  976SOL     OW 3061   2.738   2.245   3.632 -0.1985  0.2731 -0.0327
  976SOL    HW1 3062   2.673   2.178   3.615  0.0772 -0.2651  0.9912
  976SOL    HW2 3063   2.688   2.320   3.664 -0.3842  0.1221  0.0279
  977SOL     OW 3064   2.968   1.705   3.462  0.5118  0.2591  0.2722
  977SOL    HW1 3065   2.950   1.756   3.541  0.0639 -2.6174  2.1750
  977SOL    HW2 3066   2.917   1.748   3.393  0.1357  2.2798  1.7123
  978SOL     OW 3067   2.660   0.320   2.949 -0.6595  0.2359  0.2465
  978SOL    HW1 3068   2.674   0.376   2.873 -0.3806  1.8074  1.4143
  978SOL    HW2 3069   2.586   0.264   2.924 -0.5386  0.6662 -1.1818
  979SOL     OW 3070   1.247   0.486   2.083  0.1311 -0.9089 -0.1741
  979SOL    HW1 3071   1.294   0.403   2.095  0.4654 -0.8603 -1.1027
  979SOL    HW2 3072   1.291   0.528   2.009  0.0830  0.1877  0.3992
  980SOL     OW 3073   1.402   0.842   2.129  0.1928 -0.2853  0.0548
  980SOL    HW1 3074   1.491   0.808   2.119 -0.1988 -1.7421  1.2109
  980SOL    HW2 3075   1.413   0.936   2.144  1.6236 -0.6366  1.4406
  981SOL     OW 3076   0.886   2.803   3.151  0.1231 -0.4885  0.0185
  981SOL    HW1 3077   0.822   2.861   3.193  0.6940  1.0828 -1.1884
  981SOL    HW2 3078   0.834   2.732   3.114 -1.2800  1.7755 -2.6927
  982SOL     OW 3079   0.233   2.019   1.326 -0.1312  0.3987  0.0680
  982SOL    HW1 3080   0.205   1.941   1.373 -1.1970  1.5016  1.3589
  982SOL    HW2 3081   0.155   2.050   1.280  0.5192  0.1941 -1.2121
  983SOL     OW 3082   0.766   0.116   0.722 -0.3942  0.5418  0.2190
  983SOL    HW1 3083   0.712   0.058   0.668  0.9629  0.4486 -1.0890
  983SOL    HW2 3084   0.765   0.200   0.676  0.7369  0.4755  0.0465
  984SOL     OW 3085   1.190   0.054   2.072  0.7775  0.1835  0.1946
  984SOL    HW1 3086   1.120  -0.004   2.043  1.3618 -1.3798  1.7099
  984SOL    HW2 3087   1.205   0.112   1.998  0.4720 -1.9131 -1.6325
  985SOL     OW 3088   1.516   2.921   1.824 -0.0735  0.2280  0.3779
  985SOL    HW1 3089   1.454   2.946   1.893  0.0527  1.6407  0.0136
  985SOL    HW2 3090   1.474   2.848   1.779  0.0888 -1.1099  2.2723
  986SOL     OW 3091   0.750   0.894   3.117  0.7203  0.3464  0.0862
  986SOL    HW1 3092   0.690   0.823   3.093  0.9643 -0.3723  1.4829
  986SOL    HW2 3093   0.749   0.895   3.213  2.0746  1.0645  0.1167
  987SOL     OW 3094   2.602   3.120   2.604  0.3310 -0.0347 -0.2130
  987SOL    HW1 3095   2.658   3.191   2.634  4.4194 -2.1655 -1.9878
  987SOL    HW2 3096   2.570   3.148   2.518  1.9406 -0.2642 -0.9121
  988SOL     OW 3097   3.292   0.411   2.518 -0.0238  0.3759  0.3894
  988SOL    HW1 3098   3.289   0.475   2.447 -3.3205  0.5212  0.4952
  988SOL    HW2 3099   3.294   0.326   2.473 -0.0867  0.5059  0.1386
  989SOL     OW 3100   2.250   2.474   1.532 -0.1565 -0.2284 -0.2100
  989SOL    HW1 3101   2.171   2.433   1.568  0.6623 -2.6428 -0.9284
  989SOL    HW2 3102   2.224   2.563   1.512 -3.2123 -1.3572 -1.9412
  990SOL     OW 3103   3.626   3.005   0.680  0.2339 -0.6031  0.6069
  990SOL    HW1 3104   3.707   3.050   0.702 -0.9380  1.8551  0.1872
  990SOL    HW2 3105   3.591   2.976   0.765  0.0618  1.0491  1.1310
  991SOL     OW 3106   2.881   3.448   2.406 -0.7240 -0.1315 -0.8151
  991SOL    HW1 3107   2.917   3.447   2.495 -1.8902  2.0144 -0.2476
  991SOL    HW2 3108   2.861   3.357   2.387 -2.1930 -0.4744  1.9131
  992SOL     OW 3109   1.586   0.381   0.247  0.3681  0.3177  0.0083
  992SOL    HW1 3110   1.572   0.374   0.153  1.4368  0.6206 -0.1866
  992SOL    HW2 3111   1.532   0.455   0.274 -0.2849 -0.0457 -0.2842
  993SOL     OW 3112   1.874   2.779   0.144 -0.1025 -0.2466 -0.0902
  993SOL    HW1 3113   1.898   2.789   0.237 -0.6297  1.9345 -0.1328
  993SOL    HW2 3114   1.952   2.743   0.103  0.1774 -1.1425  1.1761
  994SOL     OW 3115   0.636   0.992   1.274 -0.7805  0.5096 -0.0359
  994SOL    HW1 3116   0.634   1.075   1.226  4.4087  0.5135 -0.7504
  994SOL    HW2 3117   0.680   1.013   1.356 -0.1533 -1.3700  0.1532
  995SOL     OW 3118   1.831   1.026   1.977  0.5229 -0.3966 -0.7280
  995SOL    HW1 3119   1.815   1.100   2.035  0.8403 -1.6934  1.0907
  995SOL    HW2 3120   1.927   1.021   1.971  0.5345 -1.3989  0.1729
  996SOL     OW 3121   0.397   2.888   1.206 -0.4707 -0.3246  0.2213
  996SOL    HW1 3122   0.313   2.866   1.248 -0.1260 -1.3973  0.3867
  996SOL    HW2 3123   0.416   2.977   1.236 -1.3320 -0.2323  0.5384
  997SOL     OW 3124   1.554   0.873   1.758 -0.2810 -0.9971 -0.0775
  997SOL    HW1 3125   1.642   0.897   1.728 -0.8598  2.3954  0.5054
  997SOL    HW2 3126   1.553   0.899   1.850 -1.7932 -1.3158  0.0142
  998SOL     OW 3127   2.949   3.595   0.288 -0.4621  0.2317 -0.0722
  998SOL    HW1 3128   2.868   3.620   0.242 -0.4058 -1.7269 -1.3526
  998SOL    HW2 3129   2.983   3.521   0.238  1.5447  0.2853  1.1154
  999SOL     OW 3130   0.609   1.701   3.442  0.3332 -0.6385  0.3293
  999SOL    HW1 3131   0.684   1.760   3.447 -0.3093  0.2754 -0.4903
  999SOL    HW2 3132   0.638   1.622   3.488  1.9702 -0.5038 -0.4009
 1000SOL     OW 3133   2.426   0.947   2.048  0.7423 -0.4723  0.1497
 1000SOL    HW1 3134   2.411   0.872   1.991  2.2620 -1.1685  0.6198
 1000SOL    HW2 3135   2.403   0.916   2.136  0.5149 -0.1054  0.2219
 1001SOL     OW 3136   3.372   1.376   2.159 -0.2390  0.1270 -0.2458
 1001SOL    HW1 3137   3.385   1.416   2.245  1.6839  0.0327 -0.4498
 1001SOL    HW2 3138   3.301   1.427   2.119 -0.5548  0.7351  1.0444
 1002SOL     OW 3139   0.809   2.091   0.337 -0.0322 -0.1046  0.4890
 1002SOL    HW1 3140   0.779   2.171   0.294  0.3822  1.2420  2.5638
 1002SOL    HW2 3141   0.744   2.074   0.405  0.8898 -0.4213  1.3160
 1003SOL     OW 3142   2.911   3.489   2.913 -0.2581 -0.7168 -0.1569
 1003SOL    HW1 3143   2.850   3.438   2.966 -0.5693  1.3991  1.6453
 1003SOL    HW2 3144   2.997   3.460   2.941 -0.3397  1.7936  3.2343
 1004SOL     OW 3145   2.498   0.456   1.508  0.3265  0.1418  0.6588
 1004SOL    HW1 3146   2.468   0.544   1.485  0.3846 -0.3637 -1.6612
 1004SOL    HW2 3147   2.569   0.438   1.447  0.2263 -1.5555  0.9701
 1005SOL     OW 3148   1.337   1.067   1.730  0.1020  0.0258  0.0128
 1005SOL    HW1 3149   1.349   1.156   1.763 -1.2762  1.1774 -2.3948
 1005SOL    HW2 3150   1.424   1.027   1.736  0.9947  1.8948  0.1077
 1006SOL     OW 3151   1.697   2.945   2.052  0.5717  0.4172 -0.4208
 1006SOL    HW1 3152   1.632   2.897   2.102 -0.7671  1.3843 -1.1819
 1006SOL    HW2 3153   1.682   2.918   1.961  1.2883  0.6018 -0.5999
 1007SOL     OW 3154   0.429   3.076   3.221 -0.3429 -0.1017 -0.5340
 1007SOL    HW1 3155   0.412   3.050   3.130 -2.0847  3.4531 -1.3842
 1007SOL    HW2 3156   0.373   3.018   3.272 -2.7500  0.6339 -2.1499
 1008SOL     OW 3157   0.791   2.205   3.110  0.2429 -0.2168 -0.1166
 1008SOL    HW1 3158   0.734   2.178   3.181  1.0612 -0.1478  0.5829
 1008SOL    HW2 3159   0.748   2.172   3.031 -1.3073  0.7463  0.2708
 1009SOL     OW 3160   1.197   0.634   3.448  0.0304  0.2319 -0.1337
 1009SOL    HW1 3161   1.105   0.658   3.437 -0.7474 -2.6433 -0.7311
 1009SOL    HW2 3162   1.226   0.609   3.361  1.4201  1.0945  0.0567
 1010SOL     OW 3163   0.100   1.801   0.407 -0.0960 -0.5575 -0.1432
 1010SOL    HW1 3164   0.082   1.879   0.460  1.7551 -1.8629  2.6586
 1010SOL    HW2 3165   0.140   1.835   0.327  0.0417  1.3927  0.6973
 1011SOL     OW 3166   2.802   1.203   0.488 -0.0845 -0.5707  0.0785
 1011SOL    HW1 3167   2.829   1.151   0.564 -1.8679 -0.6331  0.6971
 1011SOL    HW2 3168   2.741   1.146   0.441 -1.0879  0.4906  0.0750
 1012SOL     OW 3169   0.899   3.511   1.807 -0.0303  0.1263  0.1322
 1012SOL    HW1 3170   0.884   3.443   1.741  1.6102 -0.1589  0.0302
 1012SOL    HW2 3171   0.869   3.592   1.765 -0.5338 -0.2939 -0.3301
 1013SOL     OW 3172   0.324   1.724   1.015 -0.1833 -0.0487  0.2848
 1013SOL    HW1 3173   0.355   1.666   0.946  1.6187 -0.1975  1.1728
 1013SOL    HW2 3174   0.229   1.728   1.001 -0.0691 -1.3321 -1.2067
 1014SOL     OW 3175   2.610   1.061   1.869 -0.2240 -0.0106 -0.2986
 1014SOL    HW1 3176   2.620   1.155   1.887 -0.4430  0.1957 -1.1828
 1014SOL    HW2 3177   2.534   1.035   1.922 -0.3680  0.3924 -0.3007
 1015SOL     OW 3178   1.239   0.249   3.259 -0.4459  0.1022 -0.6533
 1015SOL    HW1 3179   1.210   0.200   3.182  1.4852 -0.2590 -1.2031
 1015SOL    HW2 3180   1.158   0.276   3.302 -1.5852 -2.0416 -1.2997
 1016SOL     OW 3181   2.722   0.065   0.524 -0.4135 -0.3625  0.5182
 1016SOL    HW1 3182   2.798   0.115   0.495  0.3969 -2.7527 -1.9314
 1016SOL    HW2 3183   2.701   0.100   0.610  1.1523  2.8803 -0.2535
 1017SOL     OW 3184   2.607   3.594   3.057  0.4040 -0.4925  0.2269
 1017SOL    HW1 3185   2.676   3.656   3.079 -0.2673  0.9057 -1.3642
 1017SOL    HW2 3186   2.648   3.508   3.069  1.9124  0.2726  0.8435
 1018SOL     OW 3187   2.631   2.845   0.375 -0.1927  0.1895  0.0117
 1018SOL    HW1 3188   2.540   2.870   0.390  0.2343  1.4972  0.5754
 1018SOL    HW2 3189   2.674   2.858   0.459  0.6517  0.2359 -0.4124
 1019SOL     OW 3190   1.675   2.412   3.393  0.0394  0.2638  0.2251
 1019SOL    HW1 3191   1.618   2.370   3.458 -0.2003 -0.6438 -0.5472
 1019SOL    HW2 3192   1.616   2.469   3.343 -0.1019 -0.2594 -0.2191
 1020SOL     OW 3193   0.052   2.844   2.218  0.0956  0.2251 -0.0358
 1020SOL    HW1 3194   0.100   2.880   2.292 -0.9177  1.1540  0.2124
 1020SOL    HW2 3195  -0.019   2.794   2.258 -0.0819  0.2038 -0.3742
 1021SOL     OW 3196   2.937   1.910   3.630 -0.6217  0.3772  0.8962
 1021SOL    HW1 3197   3.025   1.941   3.608 -0.1850 -1.1481  0.3088
 1021SOL    HW2 3198   2.928   1.926   3.724  0.8911 -0.7583  1.2791
 1022SOL     OW 3199   3.011   0.670   2.004 -0.3375  0.1448  0.1146
 1022SOL    HW1 3200   2.950   0.744   1.998 -0.0017  0.5457  1.3024
 1022SOL    HW2 3201   2.983   0.623   2.083  0.4514 -0.0655  0.2725
 1023SOL     OW 3202   2.327   0.908   3.306  1.0000  0.0796  0.2936
 1023SOL    HW1 3203   2.420   0.927   3.320  1.6032 -0.3471 -2.4023
 1023SOL    HW2 3204   2.319   0.905   3.210 -1.8976  0.5431  0.4543
 1024SOL     OW 3205   0.482   3.136   2.326 -0.5993 -0.6570 -0.0818
 1024SOL    HW1 3206   0.455   3.130   2.417 -0.4058 -0.3357 -0.0032
 1024SOL    HW2 3207   0.482   3.045   2.295 -1.3632 -0.7074  0.0311
 1025SOL     OW 3208   2.469   2.842   1.691  0.1472 -0.0841 -0.2437
 1025SOL    HW1 3209   2.458   2.790   1.770 -0.7463 -1.0003 -0.9408
 1025SOL    HW2 3210   2.529   2.912   1.716  0.4201 -0.7530  1.0458
 1026SOL     OW 3211   0.556   1.225   1.800  0.1359 -0.1972  0.2697
 1026SOL    HW1 3212   0.530   1.168   1.872  2.2238 -0.2320  1.0829
 1026SOL    HW2 3213   0.615   1.171   1.747 -1.1106 -0.0630 -1.3179
 1027SOL     OW 3214   1.387   2.373   0.219 -0.1815  0.4866  0.0994
 1027SOL    HW1 3215   1.363   2.462   0.246  1.0589  0.6901  0.5603
 1027SOL    HW2 3216   1.408   2.381   0.126 -2.4569  0.1737 -0.5130
 1028SOL     OW 3217   0.283   3.059   2.498 -0.1401  0.2482  0.1662
 1028SOL    HW1 3218   0.210   3.110   2.533 -0.0412 -0.4863  1.5167
 1028SOL    HW2 3219   0.243   2.979   2.463 -0.0828  0.2784  0.0315
 1029SOL     OW 3220   0.686   2.751   3.397 -0.0173 -0.8081  0.3497
 1029SOL    HW1 3221   0.746   2.821   3.425  0.5229 -1.9434  2.2078
 1029SOL    HW2 3222   0.625   2.741   3.470 -0.3162 -2.0483 -0.0480
 1030SOL     OW 3223   3.061   1.357   2.385  0.3866  0.1817  0.1500
 1030SOL    HW1 3224   3.080   1.417   2.312 -0.3321 -0.6113 -0.7145
 1030SOL    HW2 3225   2.968   1.336   2.375  0.6641 -1.2197  0.3203
 1031SOL     OW 3226   0.075   0.337   0.891 -0.1133 -0.2817  1.2062
 1031SOL    HW1 3227   0.149   0.280   0.912  0.1176  0.1514  1.5915
 1031SOL    HW2 3228   0.087   0.360   0.799 -0.9451 -1.9243  0.6497
 1032SOL     OW 3229   1.196   2.747   1.264 -0.1602  0.2875  0.3245
 1032SOL    HW1 3230   1.170   2.667   1.309 -3.9123  0.7229 -0.7228
 1032SOL    HW2 3231   1.256   2.719   1.196 -0.3708 -1.4289  0.8065
 1033SOL     OW 3232   0.385   3.536   0.175 -0.0175 -0.4331 -0.0418
 1033SOL    HW1 3233   0.347   3.577   0.097  0.0401  0.1060  0.2084
 1033SOL    HW2 3234   0.311   3.493   0.218 -0.3439  0.5168  0.3829
 1034SOL     OW 3235   0.107   0.486   1.686 -0.0727 -0.5547  0.4653
 1034SOL    HW1 3236   0.172   0.500   1.616  0.1600 -0.6738  0.6560
 1034SOL    HW2 3237   0.154   0.507   1.767 -0.7066  0.8163  0.4998
 1035SOL     OW 3238   0.922   3.626   0.601 -0.0425  0.4558  0.1027
 1035SOL    HW1 3239   0.872   3.685   0.658 -2.1898 -2.0684  1.0423
 1035SOL    HW2 3240   1.009   3.623   0.640 -0.7191  0.8135  1.7135
 1036SOL     OW 3241   2.572   1.971   2.372 -0.8094 -0.1865 -0.0443
 1036SOL    HW1 3242   2.559   2.061   2.403  0.5038  0.9070 -2.3825
 1036SOL    HW2 3243   2.658   1.973   2.329 -0.1037 -2.9581  1.0624
 1037SOL     OW 3244   0.442   3.360   3.563  0.2021 -0.0085 -0.5871
 1037SOL    HW1 3245   0.532   3.392   3.573 -0.7135  3.2913 -1.4904
 1037SOL    HW2 3246   0.422   3.319   3.647  2.1615  0.2890  0.0888
 1038SOL     OW 3247   1.562   0.362   3.695 -0.3162 -0.0355 -0.0587
 1038SOL    HW1 3248   1.513   0.332   3.618 -1.6303  0.3021  0.6132
 1038SOL    HW2 3249   1.595   0.448   3.671  0.7852 -0.6464 -0.8537
 1039SOL     OW 3250   0.706   0.163   2.610  0.4459 -0.1352  0.0372
 1039SOL    HW1 3251   0.703   0.073   2.577 -3.8630  0.1762 -1.0634
 1039SOL    HW2 3252   0.674   0.156   2.700 -0.6955  0.3420 -0.3207
 1040SOL     OW 3253   2.110   2.140   0.755 -1.0897 -0.0296  0.5554
 1040SOL    HW1 3254   2.129   2.072   0.691 -2.0189  2.3749 -2.5796
 1040SOL    HW2 3255   2.176   2.129   0.823  0.6327 -2.1983 -1.3021
 1041SOL     OW 3256   1.898   1.481   2.290  0.4677  0.1055  0.5087
 1041SOL    HW1 3257   1.974   1.534   2.312  0.1774  1.4767 -1.4521
 1041SOL    HW2 3258   1.930   1.421   2.223 -0.0682  0.4748 -0.0915
 1042SOL     OW 3259   2.027   0.600   0.227 -0.1593  0.2899  0.2152
 1042SOL    HW1 3260   1.940   0.573   0.254 -1.0698  0.1116 -2.6046
 1042SOL    HW2 3261   2.083   0.524   0.245 -1.3803 -1.0807 -1.4583
 1043SOL     OW 3262   3.272   3.321   1.953 -0.5848 -0.2213 -0.7033
 1043SOL    HW1 3263   3.299   3.382   2.021  1.2427 -0.6142 -1.0284
 1043SOL    HW2 3264   3.291   3.367   1.871  3.0829 -1.9381 -1.0345
 1044SOL     OW 3265   2.725   0.203   0.771 -0.1457 -0.3764  0.5839
 1044SOL    HW1 3266   2.661   0.165   0.831 -0.7451 -1.2900 -0.6044
 1044SOL    HW2 3267   2.809   0.190   0.815 -0.5668 -1.0499  1.2143
 1045SOL     OW 3268   2.872   0.797   3.133  0.1750  0.4374 -0.5550
 1045SOL    HW1 3269   2.928   0.821   3.059  1.3923  1.3264  0.6234
 1045SOL    HW2 3270   2.784   0.826   3.106  0.2842 -0.6736 -2.2735
 1046SOL     OW 3271   0.137   0.108   1.058 -0.1313 -0.1055 -0.4399
 1046SOL    HW1 3272   0.137   0.075   0.968 -0.0552  1.4237 -1.0375
 1046SOL    HW2 3273   0.228   0.098   1.087 -0.3707 -1.5798 -0.1293
 1047SOL     OW 3274   3.040   1.898   2.794  0.6892 -0.3469  0.3829
 1047SOL    HW1 3275   3.086   1.977   2.765 -1.3478  1.3555  1.5333
 1047SOL    HW2 3276   3.087   1.870   2.872  0.8112  0.3674  0.5710
 1048SOL     OW 3277   2.010   0.867   1.662  0.0610  0.4982 -0.3110
 1048SOL    HW1 3278   2.031   0.812   1.737 -0.3311  2.0445  0.9785
 1048SOL    HW2 3279   1.985   0.806   1.593  1.2882 -1.0015  0.5234
 1049SOL     OW 3280   3.270   0.672   0.240 -0.3756 -0.3700 -0.1982
 1049SOL    HW1 3281   3.267   0.576   0.235 -0.0499 -0.5949  2.6581
 1049SOL    HW2 3282   3.197   0.700   0.184 -1.5027 -2.3444  0.1623
 1050SOL     OW 3283   0.828   2.899   1.476  0.1214  0.3715 -0.1549
 1050SOL    HW1 3284   0.906   2.853   1.506  0.4921  0.3109 -1.1771
 1050SOL    HW2 3285   0.807   2.859   1.392 -0.4407  1.0454 -0.3456
 1051SOL     OW 3286   3.421   0.057   3.629 -0.3569  0.3052 -0.3333
 1051SOL    HW1 3287   3.368   0.063   3.708 -0.7724  1.6921 -0.6746
 1051SOL    HW2 3288   3.393   0.132   3.576  1.6212  0.8375 -0.7210
 1052SOL     OW 3289   0.836   0.750   0.876 -0.6477 -0.6922 -0.5614
 1052SOL    HW1 3290   0.769   0.784   0.818 -1.1084  0.5008  0.6183
 1052SOL    HW2 3291   0.833   0.808   0.953 -0.7068 -2.7229  1.0634
 1053SOL     OW 3292   3.182   2.646   0.756  0.2094  0.2890 -0.2833
 1053SOL    HW1 3293   3.111   2.588   0.783  1.2196 -1.4986 -1.2601
 1053SOL    HW2 3294   3.139   2.719   0.712 -1.0705 -0.1294  0.2575
 1054SOL     OW 3295   1.330   0.252   0.220 -0.1919 -0.2801 -0.0181
 1054SOL    HW1 3296   1.368   0.179   0.270 -0.5375 -0.6517 -0.2946
 1054SOL    HW2 3297   1.393   0.270   0.151  1.4649  1.7923  1.8895
 1055SOL     OW 3298   3.220   1.803   1.114 -0.6761 -0.0625  0.3914
 1055SOL    HW1 3299   3.165   1.803   1.193 -0.0857  1.1027  0.8273
 1055SOL    HW2 3300   3.278   1.727   1.126  0.2032  0.7719  1.6841
 1056SOL     OW 3301   0.187   3.153   0.686 -0.1773 -0.2041 -0.0730
 1056SOL    HW1 3302   0.199   3.064   0.654 -2.2154 -0.6799  0.3794
 1056SOL    HW2 3303   0.268   3.172   0.734 -0.2115 -2.2776  0.8964
 1057SOL     OW 3304   2.837   0.755   3.388 -0.0769  0.4688  0.1205
 1057SOL    HW1 3305   2.855   0.771   3.295  0.3901 -1.2996 -0.1368
 1057SOL    HW2 3306   2.776   0.824   3.413 -0.9731  0.4234 -1.7675
 1058SOL     OW 3307   1.322   3.509   0.182  0.0728  0.2462  0.3457
 1058SOL    HW1 3308   1.393   3.572   0.173  0.6039 -0.0164  2.3147
 1058SOL    HW2 3309   1.287   3.500   0.093  0.5907  2.5651 -0.1593
 1059SOL     OW 3310   1.258   1.795   0.596 -0.5153 -0.2493  0.5111
 1059SOL    HW1 3311   1.166   1.785   0.621 -0.6035  0.9455  0.7324
 1059SOL    HW2 3312   1.254   1.828   0.506 -0.2845 -0.4545  0.4237
 1060SOL     OW 3313   0.618   3.547   3.245  0.5795 -0.2730  0.1921
 1060SOL    HW1 3314   0.529   3.572   3.267 -1.3017 -5.6294  0.2370
 1060SOL    HW2 3315   0.670   3.570   3.323 -1.2941  0.6881  1.2061
 1061SOL     OW 3316   0.207   0.262   3.124  0.2682 -0.0924 -0.5565
 1061SOL    HW1 3317   0.160   0.338   3.089  0.9784  1.6080  1.9039
 1061SOL    HW2 3318   0.290   0.298   3.156  1.8541 -2.4434 -1.7675
 1062SOL     OW 3319   2.746   3.329   2.711 -0.6474  0.2518 -0.0869
 1062SOL    HW1 3320   2.779   3.413   2.680 -1.3427  0.3832 -0.4849
 1062SOL    HW2 3321   2.818   3.293   2.763 -1.1514  2.1169  2.0416
 1063SOL     OW 3322   0.894   0.253   2.216 -0.5073 -0.0413 -0.2186
 1063SOL    HW1 3323   0.865   0.250   2.125  0.4573 -0.3541 -0.5199
 1063SOL    HW2 3324   0.900   0.162   2.243  1.7007 -0.0928 -0.6684
 1064SOL     OW 3325   0.510   3.257   0.364  0.0104  0.1689 -0.6860
 1064SOL    HW1 3326   0.453   3.232   0.291 -2.3223  0.7918  0.7769
 1064SOL    HW2 3327   0.470   3.337   0.399 -0.1722 -1.1375  2.4183
 1065SOL     OW 3328   2.862   2.212   2.099 -0.4061 -0.3096 -0.1071
 1065SOL    HW1 3329   2.824   2.299   2.113  0.6479 -0.2293  2.8976
 1065SOL    HW2 3330   2.952   2.229   2.071 -0.6498 -0.4682 -1.0113
 1066SOL     OW 3331   0.566   0.185   1.443  0.2048 -0.6055  0.6105
 1066SOL    HW1 3332   0.535   0.113   1.388 -0.8948 -0.8042  1.4735
 1066SOL    HW2 3333   0.567   0.150   1.531 -1.3432  0.7197  1.2029
 1067SOL     OW 3334   3.461   1.000   1.819  0.4939 -0.5273  0.3544
 1067SOL    HW1 3335   3.482   1.055   1.894  0.9001  1.8970 -1.4339
 1067SOL    HW2 3336   3.495   1.047   1.744  0.1056 -2.8643 -1.3950
 1068SOL     OW 3337   2.976   0.741   0.275 -0.0414  0.2640 -0.5878
 1068SOL    HW1 3338   2.901   0.776   0.323  0.9509  0.6326  0.7827
 1068SOL    HW2 3339   2.998   0.809   0.211 -0.3681  0.5262 -0.4228
 1069SOL     OW 3340   1.522   2.817   2.212  0.0372 -0.1280  0.6220
 1069SOL    HW1 3341   1.480   2.734   2.232 -2.6215  0.7943 -0.7468
 1069SOL    HW2 3342   1.486   2.878   2.276 -0.7893  0.6990 -0.5989
 1070SOL     OW 3343   3.507   2.872   2.404 -0.0555  0.1796  0.5193
 1070SOL    HW1 3344   3.520   2.894   2.496  3.0747 -0.8531  0.4500
 1070SOL    HW2 3345   3.541   2.947   2.355  1.2729 -0.5344  0.2811
 1071SOL     OW 3346   0.101   3.508   0.937  0.1677  0.2824  0.3527
 1071SOL    HW1 3347   0.020   3.551   0.963 -0.1373 -0.1785  0.1533
 1071SOL    HW2 3348   0.149   3.575   0.888  0.2509  0.7993  1.1281
 1072SOL     OW 3349   1.979   3.264   2.954  0.0364  0.0731  0.1462
 1072SOL    HW1 3350   2.013   3.251   2.865 -1.4014  0.9008 -0.5695
 1072SOL    HW2 3351   2.054   3.250   3.011  0.6617 -1.9518 -1.0978
 1073SOL     OW 3352   2.744   1.475   0.821  0.5857  0.1515  0.1333
 1073SOL    HW1 3353   2.708   1.422   0.750 -1.9971  2.3056 -0.3147
 1073SOL    HW2 3354   2.759   1.412   0.892 -1.0128 -1.4145 -0.8219
 1074SOL     OW 3355   3.363   0.384   1.855 -0.0589  0.4335  0.5788
 1074SOL    HW1 3356   3.430   0.351   1.795 -0.7219  0.0151  0.0472
 1074SOL    HW2 3357   3.392   0.355   1.942  0.0590 -0.4092  0.2659
 1075SOL     OW 3358   0.131   2.665   2.910 -0.0540 -0.1984  0.0445
 1075SOL    HW1 3359   0.208   2.679   2.855  0.4586  1.4410  1.0896
 1075SOL    HW2 3360   0.146   2.579   2.950  1.1304 -0.0072  0.0528
 1076SOL     OW 3361   1.857   3.328   3.252  0.3190  0.8055  0.6181
 1076SOL    HW1 3362   1.850   3.233   3.249 -0.4529  0.8757 -0.3947
 1076SOL    HW2 3363   1.951   3.345   3.257  0.8353  0.0218 -3.1416
 1077SOL     OW 3364   2.469   1.095   1.221  0.5917  0.5338 -0.1510
 1077SOL    HW1 3365   2.459   1.025   1.156  1.2048  0.6900 -0.4261
 1077SOL    HW2 3366   2.521   1.055   1.291 -0.4263  0.2421  0.4441
 1078SOL     OW 3367   1.214   1.137   0.983 -0.6384  0.6319  0.5331
 1078SOL    HW1 3368   1.286   1.076   0.966  0.4748  2.0824 -0.1834
 1078SOL    HW2 3369   1.142   1.105   0.927  0.0114  0.1163 -0.0227
 1079SOL     OW 3370   3.603   3.529   1.269 -0.0747 -0.2720 -0.1544
 1079SOL    HW1 3371   3.542   3.592   1.306 -1.2440 -1.4342 -0.0164
 1079SOL    HW2 3372   3.547   3.466   1.223  1.2274  0.3636 -2.7876
 1080SOL     OW 3373   3.105   0.560   1.111  0.0007 -0.1495  0.1437
 1080SOL    HW1 3374   3.122   0.641   1.063  1.5171 -0.9989 -0.8249
 1080SOL    HW2 3375   3.187   0.541   1.156 -0.8412 -0.3281  1.6873
 1081SOL     OW 3376   1.543   1.605   0.066 -0.2558 -0.2843 -0.2619
 1081SOL    HW1 3377   1.530   1.686   0.018 -3.0239 -1.2665 -1.4290
 1081SOL    HW2 3378   1.609   1.625   0.132 -0.8806  2.9059 -0.4761
 1082SOL     OW 3379   1.908   2.767   2.234  0.3359  0.3802  0.3851
 1082SOL    HW1 3380   1.824   2.810   2.217  0.0876  1.0356  2.7831
 1082SOL    HW2 3381   1.966   2.799   2.165 -0.7163  1.9966  0.1928
 1083SOL     OW 3382   2.425   3.112   3.135  0.5154  0.4148 -0.2742
 1083SOL    HW1 3383   2.462   3.144   3.217  0.2248  3.0891 -1.0822
 1083SOL    HW2 3384   2.462   3.170   3.068 -0.0454 -1.0456 -1.9114
 1084SOL     OW 3385   0.357   2.708   2.708 -0.2418  0.0194  0.6589
 1084SOL    HW1 3386   0.415   2.661   2.768 -0.6110 -1.2440  0.0677
 1084SOL    HW2 3387   0.416   2.746   2.643  0.1851  1.5816  1.8773
 1085SOL     OW 3388   3.029   3.341   3.353 -0.4339 -0.2683 -0.3456
 1085SOL    HW1 3389   3.071   3.265   3.312  1.2683  1.1820 -1.4278
 1085SOL    HW2 3390   3.097   3.380   3.408 -1.7433 -0.3540  1.3929
 1086SOL     OW 3391   3.104   0.877   2.548  0.4892 -1.0404  0.2569
 1086SOL    HW1 3392   3.179   0.935   2.534  1.2859 -1.9217  0.7229
 1086SOL    HW2 3393   3.054   0.919   2.618  0.1144 -0.0538 -0.5743
 1087SOL     OW 3394   1.217   2.706   2.832 -0.2875 -0.2869  0.7503
 1087SOL    HW1 3395   1.231   2.748   2.748 -0.5474  0.1723  0.9330
 1087SOL    HW2 3396   1.296   2.654   2.847 -0.1383 -0.1750  0.3426
 1088SOL     OW 3397   2.292   1.726   3.340  0.2569 -0.3012 -0.2565
 1088SOL    HW1 3398   2.344   1.698   3.265 -0.3880 -0.6945 -0.5664
 1088SOL    HW2 3399   2.211   1.674   3.334  0.9516 -1.7325  1.7446
 1089SOL     OW 3400   3.656   0.605   0.739  0.4830 -0.1084  0.2536
 1089SOL    HW1 3401   3.744   0.569   0.749  0.4327 -0.2922  0.0393
 1089SOL    HW2 3402   3.612   0.583   0.821 -0.1786 -2.3138 -0.6159
 1090SOL     OW 3403   1.674   3.442   2.160  0.8045  0.1122  0.4019
 1090SOL    HW1 3404   1.721   3.363   2.132 -0.1645 -0.6798  0.9699
 1090SOL    HW2 3405   1.616   3.462   2.086  0.8700  0.1631  0.3631
 1091SOL     OW 3406   3.441   1.839   0.135 -0.4362  0.4696  0.0067
 1091SOL    HW1 3407   3.476   1.894   0.065 -1.2801 -0.6896 -1.3564
 1091SOL    HW2 3408   3.378   1.782   0.092 -0.5055 -0.7123  1.6018
 1092SOL     OW 3409   1.653   2.844   1.542  0.1255  0.6447  0.5656
 1092SOL    HW1 3410   1.738   2.824   1.504  0.0358  0.3412  0.5199
 1092SOL    HW2 3411   1.605   2.761   1.537  0.0230  0.6702  1.1028
 1093SOL     OW 3412   3.530   3.608   3.422  0.1155  0.4233 -0.0341
 1093SOL    HW1 3413   3.501   3.664   3.494 -0.7279 -0.0942  0.0337
 1093SOL    HW2 3414   3.624   3.628   3.413  2.0707 -3.8110  5.3117
 1094SOL     OW 3415   1.713   0.323   1.163 -0.0388  0.6598 -0.6060
 1094SOL    HW1 3416   1.659   0.304   1.239  0.7285 -1.2141 -0.4804
 1094SOL    HW2 3417   1.799   0.345   1.200 -0.1549  1.6803 -0.8876
 1095SOL     OW 3418   1.149   2.245   1.408  0.1503  0.0501 -0.4011
 1095SOL    HW1 3419   1.056   2.231   1.424 -0.0585  1.3249 -0.4083
 1095SOL    HW2 3420   1.193   2.189   1.472 -0.6166 -0.6386 -0.4683
 1096SOL     OW 3421   3.356   2.386   1.359 -0.2052 -0.4875 -0.4864
 1096SOL    HW1 3422   3.268   2.405   1.392 -1.0034 -0.6519 -2.3513
 1096SOL    HW2 3423   3.415   2.417   1.427 -1.7053 -2.4552  1.8807
 1097SOL     OW 3424   3.626   0.658   1.302 -0.2039  0.1339 -0.8078
 1097SOL    HW1 3425   3.683   0.702   1.365  0.3833 -0.6032 -0.8085
 1097SOL    HW2 3426   3.679   0.650   1.222 -0.1369 -0.9292 -0.6751
 1098SOL     OW 3427   2.104   0.790   3.391 -0.0795 -0.3917  0.2422
 1098SOL    HW1 3428   2.060   0.837   3.462  0.8717  0.0209  0.5682
 1098SOL    HW2 3429   2.180   0.844   3.369 -0.6803 -0.1973 -1.5210
 1099SOL     OW 3430   0.604   3.250   2.940  0.5412  0.1161  0.1284
 1099SOL    HW1 3431   0.668   3.274   3.007 -0.8362  0.3097  1.4111
 1099SOL    HW2 3432   0.535   3.316   2.947  0.2708  0.0368 -1.3807
 1100SOL     OW 3433   2.673   1.855   3.526  0.4983 -0.1874  0.3649
 1100SOL    HW1 3434   2.653   1.765   3.551  1.3441 -1.4061 -2.8513
 1100SOL    HW2 3435   2.768   1.860   3.529  0.5932 -0.1363 -1.4764
 1101SOL     OW 3436   0.458   0.267   0.876 -0.2649  0.2852  0.0050
 1101SOL    HW1 3437   0.545   0.302   0.896 -0.3100 -0.6335  2.0286
 1101SOL    HW2 3438   0.399   0.312   0.937 -0.8914 -0.5862  0.0650
 1102SOL     OW 3439   0.017   2.682   0.761  0.5046 -0.2639 -0.0458
 1102SOL    HW1 3440  -0.014   2.640   0.842 -0.6064  1.2362  0.3539
 1102SOL    HW2 3441   0.038   2.609   0.703 -3.0379 -1.4955 -0.0330
 1103SOL     OW 3442   3.552   1.932   2.445  0.6220 -0.5531  0.3085
 1103SOL    HW1 3443   3.621   1.928   2.378  0.3862  1.3297 -0.1238
 1103SOL    HW2 3444   3.575   1.864   2.508  2.8377 -0.0754  0.1150
 1104SOL     OW 3445   0.840   3.677   1.551 -0.4835 -0.3245  0.9157
 1104SOL    HW1 3446   0.857   3.737   1.477 -0.3015  2.5219  3.0782
 1104SOL    HW2 3447   0.904   3.607   1.540 -0.2596  0.1715 -1.4434
 1105SOL     OW 3448   1.383   0.527   1.480  0.4866 -0.0278 -0.0233
 1105SOL    HW1 3449   1.412   0.558   1.394  0.6448 -0.9260 -0.3042
 1105SOL    HW2 3450   1.335   0.601   1.517 -0.5221  0.0306 -1.3382
 1106SOL     OW 3451   0.091   1.565   0.546 -0.8470 -0.3103 -0.4655
 1106SOL    HW1 3452   0.175   1.526   0.523 -0.8284 -1.1537  0.9642
 1106SOL    HW2 3453   0.094   1.652   0.506  0.4779 -0.5172 -0.8761
 1107SOL     OW 3454   1.855   1.322   2.732  0.1688  0.0262 -0.5360
 1107SOL    HW1 3455   1.794   1.289   2.667 -2.6097  0.5109  1.6368
 1107SOL    HW2 3456   1.834   1.416   2.738 -0.3183 -0.1752  1.6285
 1108SOL     OW 3457   1.721   1.453   3.007 -0.2310  0.2048 -0.5671
 1108SOL    HW1 3458   1.663   1.402   2.950  0.0359 -2.0300  1.0292
 1108SOL    HW2 3459   1.663   1.497   3.069 -0.3719  0.5556 -0.9433
 1109SOL     OW 3460   3.675   3.287   0.760 -0.7068  0.2212  0.2003
 1109SOL    HW1 3461   3.761   3.249   0.742 -1.0454 -1.1581  1.3548
 1109SOL    HW2 3462   3.693   3.367   0.809 -0.0917 -0.0068  0.3466
 1110SOL     OW 3463   2.554   2.825   2.557  0.0652  0.2698  0.1077
 1110SOL    HW1 3464   2.519   2.909   2.589  0.4342  0.1928  0.7463
 1110SOL    HW2 3465   2.648   2.831   2.575  0.1480 -0.1357 -0.1864
 1111SOL     OW 3466   3.135   0.147   1.684  0.2642 -0.3244  0.4425
 1111SOL    HW1 3467   3.095   0.233   1.677  0.0756 -0.4133  0.4254
 1111SOL    HW2 3468   3.215   0.153   1.632  0.1713 -0.2083  0.3149
 1112SOL     OW 3469   2.473   0.741   1.486 -0.4653 -0.6358  0.4518
 1112SOL    HW1 3470   2.521   0.822   1.474  1.2922 -1.7514 -0.4991
 1112SOL    HW2 3471   2.397   0.765   1.540  1.2637  1.1615  2.2178
 1113SOL     OW 3472   2.798   3.055   2.865 -0.0665 -0.0699  0.0422
 1113SOL    HW1 3473   2.873   3.109   2.841  1.7092 -2.7674 -0.9150
 1113SOL    HW2 3474   2.733   3.074   2.797  0.4176  1.0141 -0.1347
 1114SOL     OW 3475   1.775   0.936   3.039  0.1292  0.0812  0.5223
 1114SOL    HW1 3476   1.693   0.956   3.085  1.0794  2.2604  1.4092
 1114SOL    HW2 3477   1.832   1.011   3.059  2.8053 -1.9626  1.0269
 1115SOL     OW 3478   0.939   0.526   0.096 -1.0036  0.0001  0.6621
 1115SOL    HW1 3479   0.973   0.575   0.170 -2.2105 -1.2933  2.1544
 1115SOL    HW2 3480   0.851   0.561   0.083 -0.8214  0.1751 -0.1263
 1116SOL     OW 3481   1.354   0.740   3.034  0.2633  0.5519 -0.4246
 1116SOL    HW1 3482   1.449   0.728   3.030  0.1589 -1.0060  0.7028
 1116SOL    HW2 3483   1.320   0.692   2.959  0.3176  0.1471 -0.1960
 1117SOL     OW 3484   2.463   3.266   3.451 -0.2790 -0.1429  0.1869
 1117SOL    HW1 3485   2.445   3.199   3.517  0.1320  1.2633  1.8094
 1117SOL    HW2 3486   2.554   3.249   3.425  0.2481  0.4432  1.4945
 1118SOL     OW 3487   3.142   2.541   1.693  0.8519 -0.3787  0.2643
 1118SOL    HW1 3488   3.192   2.622   1.707  1.6781 -1.0230  1.1347
 1118SOL    HW2 3489   3.196   2.472   1.732  0.0852 -1.3372 -0.3273
 1119SOL     OW 3490   1.296   3.025   2.289  0.5841 -0.2829  0.0741
 1119SOL    HW1 3491   1.250   2.981   2.359  0.4369  0.9949  0.8163
 1119SOL    HW2 3492   1.285   3.118   2.307  2.7740  0.0878 -0.1557
 1120SOL     OW 3493   1.325   1.963   2.817 -0.2248 -0.0436 -0.2523
 1120SOL    HW1 3494   1.350   1.912   2.894 -1.6225 -0.2467  0.0903
 1120SOL    HW2 3495   1.390   2.033   2.812 -1.1448  1.0767  2.2188
 1121SOL     OW 3496   0.177   3.381   0.578  0.2472 -0.2742 -0.0152
 1121SOL    HW1 3497   0.143   3.448   0.637  2.9434  1.6694 -0.4702
 1121SOL    HW2 3498   0.174   3.300   0.628  1.2572  1.0585  2.3545
 1122SOL     OW 3499   0.789   2.683   1.277 -0.8200 -0.2035  0.0854
 1122SOL    HW1 3500   0.743   2.681   1.193 -1.4019  2.0160  0.2930
 1122SOL    HW2 3501   0.874   2.644   1.258 -1.4466 -1.0461 -1.1803
 1123SOL     OW 3502   3.140   2.083   2.145  0.1082 -0.3957 -0.2795
 1123SOL    HW1 3503   3.104   2.054   2.229  1.1217 -0.5166  0.1319
 1123SOL    HW2 3504   3.229   2.048   2.144  0.0251 -0.6215 -1.5305
 1124SOL     OW 3505   0.287   0.459   1.079  0.3818 -0.3202  0.2650
 1124SOL    HW1 3506   0.292   0.524   1.008 -1.7995  1.2988  1.4655
 1124SOL    HW2 3507   0.370   0.468   1.125  0.9874  0.0795 -0.8517
 1125SOL     OW 3508   0.868   0.841   1.863  0.0021  0.6099 -0.1696
 1125SOL    HW1 3509   0.892   0.768   1.920  0.4622 -0.8297 -2.0883
 1125SOL    HW2 3510   0.941   0.902   1.872  0.5494 -0.0526  0.0624
 1126SOL     OW 3511   3.050   0.106   0.174  0.1358  0.2748  0.3444
 1126SOL    HW1 3512   3.068   0.069   0.088 -0.6194 -0.7296  0.6040
 1126SOL    HW2 3513   3.044   0.030   0.232 -2.5315  0.6895  0.7074
 1127SOL     OW 3514   2.446   3.319   2.938  0.3112 -0.3823  0.0856
 1127SOL    HW1 3515   2.369   3.374   2.956  0.4140 -0.6857  1.5352
 1127SOL    HW2 3516   2.414   3.254   2.876 -0.5920 -0.4589  0.6160
 1128SOL     OW 3517   0.508   1.958   0.782  0.1478  0.2536  0.4360
 1128SOL    HW1 3518   0.530   1.865   0.784  0.9086  0.3769 -0.8971
 1128SOL    HW2 3519   0.415   1.960   0.757  0.3039 -0.1317 -0.1795
 1129SOL     OW 3520   2.196   3.541   2.352 -0.1586 -0.6232 -0.1435
 1129SOL    HW1 3521   2.266   3.500   2.301 -0.5253  0.1490 -1.3047
 1129SOL    HW2 3522   2.240   3.573   2.431  0.6468 -0.8378 -0.4915
 1130SOL     OW 3523   3.673   2.325   1.638 -0.0484 -0.6287 -0.4677
 1130SOL    HW1 3524   3.596   2.363   1.597  0.2740 -0.5873 -1.0521
 1130SOL    HW2 3525   3.734   2.310   1.565  0.7740 -0.0021  0.0727
 1131SOL     OW 3526   3.223   2.414   0.052 -0.2811  0.5540  0.0178
 1131SOL    HW1 3527   3.212   2.478   0.122 -1.2584 -0.8843  1.2180
 1131SOL    HW2 3528   3.270   2.342   0.092 -2.2872 -1.0144 -0.2834
 1132SOL     OW 3529   3.074   3.186   0.718 -0.2078 -0.1804 -0.0746
 1132SOL    HW1 3530   3.067   3.263   0.662  0.2036  1.0735  1.5491
 1132SOL    HW2 3531   2.991   3.182   0.765 -0.5849 -1.2839 -0.7676
 1133SOL     OW 3532   2.345   1.121   0.868 -0.5238 -0.1632 -0.2437
 1133SOL    HW1 3533   2.384   1.106   0.781  1.4298  1.1751  0.3375
 1133SOL    HW2 3534   2.382   1.052   0.923 -1.0394 -0.4444 -0.2348
 1134SOL     OW 3535   0.750   1.171   0.284 -0.1983  0.7895  1.1555
 1134SOL    HW1 3536   0.844   1.173   0.298 -0.0361  2.2844  0.1311
 1134SOL    HW2 3537   0.735   1.235   0.215 -1.6476 -1.5829 -0.8689
 1135SOL     OW 3538   0.896   3.044   0.124 -0.5378  0.0057 -0.1701
 1135SOL    HW1 3539   0.857   3.090   0.049  0.1991  2.6213  0.9419
 1135SOL    HW2 3540   0.825   3.040   0.188 -1.3053 -2.6386 -1.0682
 1136SOL     OW 3541   1.481   0.989   2.347 -0.0938  0.3930  0.6244
 1136SOL    HW1 3542   1.513   0.905   2.379  2.2343  0.3625 -1.4462
 1136SOL    HW2 3543   1.560   1.042   2.336 -1.2016  1.8665 -0.7153
 1137SOL     OW 3544   3.330   3.478   3.253  0.1748  0.3777 -0.5426
 1137SOL    HW1 3545   3.276   3.482   3.175  0.0879 -2.4327 -0.7115
 1137SOL    HW2 3546   3.390   3.552   3.244 -1.3170  1.4803 -2.0742
 1138SOL     OW 3547   1.607   1.940   1.662  0.4163 -0.3872 -0.2855
 1138SOL    HW1 3548   1.702   1.932   1.669  0.5355 -2.2188 -2.5785
 1138SOL    HW2 3549   1.592   2.027   1.625  1.3053 -0.5876 -1.1275
 1139SOL     OW 3550   2.825   1.994   0.194 -0.3547  0.0794 -0.3228
 1139SOL    HW1 3551   2.807   2.072   0.247 -0.8186  0.3606 -0.8960
 1139SOL    HW2 3552   2.772   1.926   0.235 -0.7679  0.3128 -0.4639
 1140SOL     OW 3553   2.472   0.245   0.104 -0.6216  0.0450  0.1833
 1140SOL    HW1 3554   2.516   0.173   0.150  1.9720  0.4915 -1.3731
 1140SOL    HW2 3555   2.405   0.202   0.051 -0.5323 -0.9859  0.8686
 1141SOL     OW 3556   3.502   3.487   2.398  0.2467  0.5569 -0.0348
 1141SOL    HW1 3557   3.503   3.472   2.303 -0.2745  1.1490 -0.1446
 1141SOL    HW2 3558   3.423   3.442   2.429  0.9388 -0.4777  0.2818
 1142SOL     OW 3559   2.641   3.164   0.265 -0.4720 -0.2562 -0.6511
 1142SOL    HW1 3560   2.607   3.173   0.354  2.9157 -2.2882  1.0441
 1142SOL    HW2 3561   2.653   3.254   0.234  0.4563  0.5622  1.8935
 1143SOL     OW 3562   1.921   1.276   1.827 -0.8024 -0.1854  0.3828
 1143SOL    HW1 3563   1.976   1.350   1.850 -0.3482 -0.6914  0.9602
 1143SOL    HW2 3564   1.982   1.211   1.790 -1.0303 -0.6819  0.8701
 1144SOL     OW 3565   1.137   1.999   0.944  0.0957 -0.6422 -0.1373
 1144SOL    HW1 3566   1.150   2.047   1.026 -1.1575  3.0591 -1.8870
 1144SOL    HW2 3567   1.225   1.991   0.907  0.5901 -1.7945  1.2019
 1145SOL     OW 3568   0.467   1.173   2.273 -0.5556 -0.7345  0.1845
 1145SOL    HW1 3569   0.467   1.078   2.282 -2.4276 -0.6461  1.5818
 1145SOL    HW2 3570   0.382   1.193   2.233  0.2731  0.3086 -1.1530
 1146SOL     OW 3571   3.053   2.466   1.019 -0.2210  0.9082  0.3166
 1146SOL    HW1 3572   2.996   2.487   0.945 -1.8305 -3.4112  0.0456
 1146SOL    HW2 3573   2.999   2.486   1.096 -0.2515  1.2488  0.2107
 1147SOL     OW 3574   0.074   0.646   1.089 -0.1020 -0.1699  0.4253
 1147SOL    HW1 3575   0.142   0.578   1.092 -0.4633 -0.5928 -0.5273
 1147SOL    HW2 3576   0.115   0.719   1.043  1.0303  1.1822  3.3103
 1148SOL     OW 3577   0.347   2.744   0.376  0.8218  0.3819  0.1925
 1148SOL    HW1 3578   0.302   2.679   0.430  0.6784  0.0427 -0.3218
 1148SOL    HW2 3579   0.378   2.810   0.438  0.2363  0.2524  0.6343
 1149SOL     OW 3580   1.570   0.830   1.394  0.4826 -0.5685 -0.3841
 1149SOL    HW1 3581   1.496   0.845   1.335 -0.2332 -0.5463  0.4955
 1149SOL    HW2 3582   1.579   0.913   1.443 -0.7073 -1.4591  1.4556
 1150SOL     OW 3583   2.344   1.003   2.869  0.1017  0.1268 -0.2224
 1150SOL    HW1 3584   2.256   0.992   2.906  0.2856 -1.0204 -0.1189
 1150SOL    HW2 3585   2.391   0.923   2.891  0.8800  0.3137 -1.1146
 1151SOL     OW 3586   1.447   3.659   2.360  0.4917  0.2965 -0.1084
 1151SOL    HW1 3587   1.353   3.644   2.374  0.2319  0.8366 -1.1138
 1151SOL    HW2 3588   1.457   3.754   2.365  1.1596  0.1850  0.8972
 1152SOL     OW 3589   0.993   0.849   2.975  0.3098 -0.4617  0.0786
 1152SOL    HW1 3590   0.911   0.869   3.020  0.4983  1.1469 -0.2673
 1152SOL    HW2 3591   1.060   0.854   3.044  0.3391  0.0016  0.0193
 1153SOL     OW 3592   0.615   1.634   0.193  0.4238  1.0176  0.0984
 1153SOL    HW1 3593   0.527   1.635   0.154 -0.0451  0.8418  1.1199
 1153SOL    HW2 3594   0.607   1.576   0.269  0.8520  2.6231  1.4408
 1154SOL     OW 3595   2.072   1.181   2.602  0.0893 -0.0944  0.1376
 1154SOL    HW1 3596   2.123   1.227   2.535 -1.6736 -1.2605 -2.1554
 1154SOL    HW2 3597   2.011   1.246   2.636 -0.2102  0.1002 -0.7377
 1155SOL     OW 3598   2.758   1.976   2.197  0.1590 -0.2526 -0.4578
 1155SOL    HW1 3599   2.683   1.983   2.138 -0.0271  0.5812 -0.1453
 1155SOL    HW2 3600   2.817   2.046   2.170 -0.3047  0.6951  0.8378
 1156SOL     OW 3601   2.879   1.701   1.878  0.5241 -0.2437  0.3754
 1156SOL    HW1 3602   2.911   1.782   1.919 -0.8204  0.4769  0.0666
 1156SOL    HW2 3603   2.837   1.731   1.797  2.8188 -1.5928 -1.4281
 1157SOL     OW 3604   0.750   3.454   2.652  0.0367 -0.3383 -0.2187
 1157SOL    HW1 3605   0.767   3.360   2.663  0.3823 -0.1114  1.4792
 1157SOL    HW2 3606   0.660   3.465   2.682  0.0727 -0.0907 -0.2040
 1158SOL     OW 3607   0.242   1.137   2.495 -0.1970  0.7500  0.5142
 1158SOL    HW1 3608   0.183   1.185   2.554 -2.5442 -0.0698 -1.0083
 1158SOL    HW2 3609   0.279   1.068   2.549 -0.4897  1.4075  1.5853
 1159SOL     OW 3610   3.276   1.855   0.358  0.3884  0.1853 -0.3553
 1159SOL    HW1 3611   3.247   1.943   0.382  2.2089  0.4717  1.0068
 1159SOL    HW2 3612   3.322   1.867   0.275 -0.2016  0.3341 -0.6674
 1160SOL     OW 3613   1.709   1.387   0.521 -0.3435 -0.3023 -0.2331
 1160SOL    HW1 3614   1.648   1.339   0.465 -1.3207  0.3004  0.2939
 1160SOL    HW2 3615   1.661   1.401   0.602  1.2334 -1.6326  0.9841
 1161SOL     OW 3616   3.271   0.710   1.890 -0.0402  0.0987  0.3469
 1161SOL    HW1 3617   3.224   0.720   1.807 -0.1592  0.5799  0.4713
 1161SOL    HW2 3618   3.204   0.680   1.952  0.4488 -2.3945 -0.1906
 1162SOL     OW 3619   0.235   0.193   1.400 -0.3482  0.0148  0.1435
 1162SOL    HW1 3620   0.279   0.133   1.461 -2.0271 -1.9045 -0.4277
 1162SOL    HW2 3621   0.286   0.187   1.319  0.2671  0.4439  0.4845
 1163SOL     OW 3622   2.726   2.280   2.812  0.1407 -0.0313  0.4765
 1163SOL    HW1 3623   2.667   2.215   2.774 -1.5678  1.3989  0.5875
 1163SOL    HW2 3624   2.689   2.300   2.898  1.9538 -0.5819  1.4424
 1164SOL     OW 3625   3.285   3.312   0.372  0.0795  0.3993 -0.4133
 1164SOL    HW1 3626   3.293   3.304   0.467 -0.0531 -1.2281 -0.5184
 1164SOL    HW2 3627   3.355   3.258   0.337 -0.5837  0.0535 -1.2459
 1165SOL     OW 3628   0.987   3.417   2.169 -0.4714  0.1193 -0.1507
 1165SOL    HW1 3629   0.940   3.377   2.096 -0.4832  0.4339 -0.3185
 1165SOL    HW2 3630   1.079   3.410   2.145 -0.5289  1.5528 -0.9116
 1166SOL     OW 3631   3.637   0.509   2.153  0.4238  0.0843  0.0343
 1166SOL    HW1 3632   3.732   0.504   2.153  0.4190 -0.0532 -0.3349
 1166SOL    HW2 3633   3.617   0.583   2.095  0.3412  1.0691  1.2710
 1167SOL     OW 3634   0.690   3.501   0.800  0.1245  0.2043  0.1265
 1167SOL    HW1 3635   0.766   3.448   0.772  0.8139  1.0365  0.3958
 1167SOL    HW2 3636   0.626   3.489   0.730  0.4100 -0.6991  0.0073
 1168SOL     OW 3637   1.488   0.798   0.236  0.0685  0.2090  0.7428
 1168SOL    HW1 3638   1.474   0.743   0.159  0.7732 -1.2173  1.5909
 1168SOL    HW2 3639   1.546   0.747   0.292  0.3968  1.6462  1.7777
 1169SOL     OW 3640   1.957   1.052   0.512 -0.4598  0.3857  0.4201
 1169SOL    HW1 3641   2.043   1.041   0.470 -0.1053 -0.2569  1.2877
 1169SOL    HW2 3642   1.976   1.046   0.606 -1.8064 -2.3788  0.5896
 1170SOL     OW 3643   0.595   0.755   1.865  0.3338 -0.6034 -0.3485
 1170SOL    HW1 3644   0.675   0.806   1.872  0.4951 -0.8012 -0.7305
 1170SOL    HW2 3645   0.593   0.725   1.774 -0.6850  0.2313 -0.6166
 1171SOL     OW 3646   2.421   0.047   1.433 -0.0180  0.0008  0.0990
 1171SOL    HW1 3647   2.373   0.093   1.502 -2.6218 -0.7828 -1.0356
 1171SOL    HW2 3648   2.464   0.116   1.383 -0.1256  0.7817  1.0631
 1172SOL     OW 3649   2.095   1.518   3.403 -0.4389 -0.6835 -0.4850
 1172SOL    HW1 3650   2.166   1.466   3.440 -0.5122 -0.5470 -0.1505
 1172SOL    HW2 3651   2.027   1.454   3.383 -0.2719 -0.7993 -0.6923
 1173SOL     OW 3652   2.107   1.085   0.054 -0.3848  0.6185 -1.1075
 1173SOL    HW1 3653   2.085   0.996   0.081  0.2275  0.8510  0.2342
 1173SOL    HW2 3654   2.041   1.140   0.097  0.1487  0.9319 -0.6753
 1174SOL     OW 3655   0.138   1.333   1.435  0.2059  0.1328  0.2557
 1174SOL    HW1 3656   0.072   1.263   1.426 -1.5613  1.8843 -1.6008
 1174SOL    HW2 3657   0.128   1.364   1.525 -0.0922 -0.9629  0.6177
 1175SOL     OW 3658   2.791   3.178   1.736 -0.0019  0.1127  0.1467
 1175SOL    HW1 3659   2.819   3.229   1.660 -1.5779 -1.2065 -1.3897
 1175SOL    HW2 3660   2.855   3.200   1.804  1.4584  1.3449 -1.5299
 1176SOL     OW 3661   1.216   1.340   0.475 -0.1236  0.1848  0.1508
 1176SOL    HW1 3662   1.285   1.346   0.409 -0.7971  1.8315 -0.4518
 1176SOL    HW2 3663   1.147   1.398   0.443 -0.7119  0.5801  2.0126
 1177SOL     OW 3664   2.756   2.159   3.107  0.6663 -0.1940 -0.6080
 1177SOL    HW1 3665   2.800   2.209   3.039 -0.6573  2.6782  0.4771
 1177SOL    HW2 3666   2.814   2.166   3.183 -0.7619  2.3109  0.3781
 1178SOL     OW 3667   1.236   2.117   2.563 -0.4588 -0.2657  0.1183
 1178SOL    HW1 3668   1.202   2.186   2.620  1.7801  0.4521  0.6633
 1178SOL    HW2 3669   1.240   2.039   2.618  0.1793  0.0195  0.4749
 1179SOL     OW 3670   0.810   1.280   0.011  0.4844  0.5958  0.2538
 1179SOL    HW1 3671   0.822   1.185   0.005 -3.3650 -0.4648  4.2259
 1179SOL    HW2 3672   0.897   1.313   0.032  1.5248 -2.4114  1.2556
 1180SOL     OW 3673   3.185   2.124   2.680 -0.0543 -0.1857 -0.7175
 1180SOL    HW1 3674   3.228   2.186   2.740 -0.4284 -1.3606  0.8248
 1180SOL    HW2 3675   3.209   2.155   2.593  0.6294  1.5104  0.0233
 1181SOL     OW 3676   1.898   2.952   1.075  0.0014 -0.2475  0.1879
 1181SOL    HW1 3677   1.851   3.025   1.115  1.2382  1.8118 -1.8526
 1181SOL    HW2 3678   1.860   2.943   0.988 -0.1162 -2.0888  0.3931
 1182SOL     OW 3679   1.370   2.784   1.610 -0.4409  0.2284  0.7817
 1182SOL    HW1 3680   1.291   2.754   1.656  0.0924 -0.5290  1.2201
 1182SOL    HW2 3681   1.400   2.707   1.561 -0.7501  0.9047 -0.5039
 1183SOL     OW 3682   3.131   1.707   3.021  0.5048 -0.6346  0.1891
 1183SOL    HW1 3683   3.068   1.722   3.092  0.0139  2.7310 -0.7848
 1183SOL    HW2 3684   3.195   1.776   3.031 -0.2490  0.7906 -3.2681
 1184SOL     OW 3685   1.926   0.891   3.581  0.4800  0.2471 -0.5099
 1184SOL    HW1 3686   1.920   0.842   3.663 -1.3714  0.5178 -0.4454
 1184SOL    HW2 3687   1.964   0.975   3.606  0.2384  0.2026  0.0146
 1185SOL     OW 3688   3.337   0.388   0.435 -0.4183  0.6247  0.0768
 1185SOL    HW1 3689   3.250   0.423   0.414 -0.5649 -0.9218 -2.2820
 1185SOL    HW2 3690   3.338   0.301   0.395  1.5240 -0.2296  1.8089
 1186SOL     OW 3691   1.634   3.111   3.468  0.2693 -0.0226 -0.0273
 1186SOL    HW1 3692   1.609   3.129   3.377  0.1102  1.2075  0.2426
 1186SOL    HW2 3693   1.714   3.059   3.461  0.6955  0.7168 -0.8842
 1187SOL     OW 3694   1.247   1.970   3.115 -0.6428  0.4586 -0.3627
 1187SOL    HW1 3695   1.300   1.947   3.191 -1.3451  2.4820  0.8284
 1187SOL    HW2 3696   1.184   1.898   3.107 -0.0190 -0.1952  0.4273
 1188SOL     OW 3697   2.101   0.597   1.591 -0.5833 -0.1669 -0.1058
 1188SOL    HW1 3698   2.093   0.606   1.496  2.5576  0.2151 -0.4548
 1188SOL    HW2 3699   2.126   0.505   1.603 -1.2295 -0.2796  0.3788
 1189SOL     OW 3700   0.947   1.834   1.063  0.0581 -0.7040  0.4124
 1189SOL    HW1 3701   1.027   1.877   1.093 -0.0698  0.1937 -0.4566
 1189SOL    HW2 3702   0.934   1.867   0.974 -1.6064 -0.3618  0.7353
 1190SOL     OW 3703   2.063   2.163   1.616 -0.2939  0.3400  0.2792
 1190SOL    HW1 3704   2.019   2.248   1.616  0.8322  0.9522 -0.4594
 1190SOL    HW2 3705   2.141   2.176   1.670  1.3121  0.6124 -1.9378
 1191SOL     OW 3706   1.527   2.866   0.794  0.0695  0.4301 -0.5735
 1191SOL    HW1 3707   1.548   2.933   0.858  0.3825 -1.3021  1.2370
 1191SOL    HW2 3708   1.448   2.824   0.828 -0.3472  0.1165 -1.8689
 1192SOL     OW 3709   1.493   3.724   1.272 -0.1811 -0.1743  0.0949
 1192SOL    HW1 3710   1.537   3.691   1.350 -0.7502 -1.8622 -0.2657
 1192SOL    HW2 3711   1.421   3.663   1.256 -1.1465  1.1065 -0.7723
 1193SOL     OW 3712   2.157   0.098   1.122  0.4448  0.1864  0.8188
 1193SOL    HW1 3713   2.165   0.074   1.030  0.3542 -1.9892  1.3225
 1193SOL    HW2 3714   2.234   0.059   1.163  0.9065  1.8005  1.5930
 1194SOL     OW 3715   1.884   0.736   0.538  0.6318 -0.0884  0.1581
 1194SOL    HW1 3716   1.887   0.818   0.489  1.6886 -1.3457 -2.0226
 1194SOL    HW2 3717   1.796   0.702   0.525  0.8603 -0.3366 -0.7573
 1195SOL     OW 3718   3.221   3.205   0.049 -0.1499 -0.5568  0.1326
 1195SOL    HW1 3719   3.310   3.221   0.078 -0.4668  0.1045  0.7707
 1195SOL    HW2 3720   3.181   3.154   0.120  0.1534 -2.2126 -0.8263
 1196SOL     OW 3721   3.324   1.861   3.154  0.3278 -0.1496  0.2680
 1196SOL    HW1 3722   3.358   1.950   3.162 -0.8526  0.1398  3.1881
 1196SOL    HW2 3723   3.294   1.838   3.242  0.2424 -3.3253 -0.4495
 1197SOL     OW 3724   0.917   2.887   2.658  0.6201 -0.0706 -0.0094
 1197SOL    HW1 3725   0.951   2.976   2.655 -0.6749  0.4599  0.5777
 1197SOL    HW2 3726   0.883   2.871   2.570 -0.8055  0.7053  0.3776
 1198SOL     OW 3727   0.448   1.003   0.701 -0.5074 -0.4790  0.1321
 1198SOL    HW1 3728   0.415   0.932   0.646  0.7879 -0.7194 -0.3567
 1198SOL    HW2 3729   0.371   1.058   0.716 -1.0450 -0.7823 -1.3178
 1199SOL     OW 3730   2.485   1.493   1.873  0.8331  0.0148 -0.3716
 1199SOL    HW1 3731   2.453   1.580   1.898  0.0271 -0.4225  0.1761
 1199SOL    HW2 3732   2.509   1.502   1.781 -2.8713 -0.1090 -1.5095
 1200SOL     OW 3733   3.636   1.117   3.383  0.1727  0.1706 -0.3184
 1200SOL    HW1 3734   3.588   1.197   3.363  1.6965  1.1816 -0.0573
 1200SOL    HW2 3735   3.683   1.136   3.464  2.2067 -0.2090 -1.3519
 1201SOL     OW 3736   3.631   0.448   3.454  0.2482  0.2904  0.0442
 1201SOL    HW1 3737   3.650   0.393   3.378 -1.7278 -1.0432  0.4091
 1201SOL    HW2 3738   3.552   0.496   3.430 -0.3068 -0.0188  1.1339
 1202SOL     OW 3739   1.197   2.985   0.356  0.4691  0.1050 -0.2806
 1202SOL    HW1 3740   1.157   3.071   0.351  0.0951 -0.0637 -0.2554
 1202SOL    HW2 3741   1.288   3.001   0.378 -0.2693  0.3715  3.1481
 1203SOL     OW 3742   0.058  -0.016   0.269  0.4572 -0.2416 -0.0709
 1203SOL    HW1 3743   0.021   0.017   0.188 -1.0232  0.4003  0.8241
 1203SOL    HW2 3744   0.024   0.042   0.337 -1.9939 -3.2554  1.5602
 1204SOL     OW 3745   3.380   0.825   1.363  0.4157  0.0188 -0.4209
 1204SOL    HW1 3746   3.377   0.848   1.456  0.9236 -1.6163  0.0359
 1204SOL    HW2 3747   3.450   0.760   1.357  1.7503  1.5368 -2.3029
 1205SOL     OW 3748   1.848   3.196   1.653  0.1270  0.3528 -0.3722
 1205SOL    HW1 3749   1.766   3.225   1.611  0.2807 -0.5797 -1.3574
 1205SOL    HW2 3750   1.904   3.170   1.580  1.6186  1.7082  0.2287
 1206SOL     OW 3751   1.878   1.486   1.585 -0.2476 -0.4848 -0.1647
 1206SOL    HW1 3752   1.891   1.530   1.501 -1.9903 -1.8852 -1.2452
 1206SOL    HW2 3753   1.918   1.400   1.573  0.3304 -0.3697  0.8150
 1207SOL     OW 3754   1.809   2.973   2.561  0.2407 -1.1180  0.2198
 1207SOL    HW1 3755   1.868   2.924   2.618 -1.0695 -2.7600  0.2568
 1207SOL    HW2 3756   1.828   3.065   2.579  2.7522 -1.5656  0.2064
 1208SOL     OW 3757   0.502   1.060   3.585 -0.3526  0.3085  0.2761
 1208SOL    HW1 3758   0.579   1.097   3.628 -0.4608  1.1843 -0.2628
 1208SOL    HW2 3759   0.491   1.112   3.505 -1.6811  0.4048  0.4948
 1209SOL     OW 3760   2.375   3.462   3.217  0.2105  0.3760 -0.3843
 1209SOL    HW1 3761   2.398   3.396   3.283  1.1820 -0.8083 -1.8423
 1209SOL    HW2 3762   2.452   3.519   3.213 -1.0662  2.4093  1.7040
 1210SOL     OW 3763   2.859   3.193   2.379 -0.2499 -0.3231  1.0455
 1210SOL    HW1 3764   2.951   3.170   2.362 -0.4874 -0.4624 -0.1210
 1210SOL    HW2 3765   2.817   3.109   2.396 -0.7711 -0.6512 -1.5300
 1211SOL     OW 3766   3.039   3.410   0.973  0.9020 -0.2080  0.5086
 1211SOL    HW1 3767   3.080   3.439   0.892  0.6973  0.0267  0.4897
 1211SOL    HW2 3768   3.051   3.484   1.033  3.8916 -1.5119  1.7190
 1212SOL     OW 3769   1.064   0.625   1.953  0.1397  0.0025 -0.0007
 1212SOL    HW1 3770   1.121   0.565   2.000  0.8149 -0.1074 -0.9270
 1212SOL    HW2 3771   0.984   0.575   1.935 -0.1575  0.0718  1.0642
 1213SOL     OW 3772   0.793   1.476   0.655  0.6345 -0.6345 -0.3967
 1213SOL    HW1 3773   0.781   1.565   0.620 -0.5127 -0.7851 -0.4068
 1213SOL    HW2 3774   0.867   1.485   0.715 -2.0805  1.3726  3.0065
 1214SOL     OW 3775   0.640   0.436   3.386  0.1879  0.1568 -0.1196
 1214SOL    HW1 3776   0.631   0.363   3.448 -1.3444 -0.4807 -1.0322
 1214SOL    HW2 3777   0.607   0.512   3.433  2.3558  0.4655  1.0588
 1215SOL     OW 3778   0.037   2.615  -0.005  0.4991 -0.0085  0.1863
 1215SOL    HW1 3779   0.058   2.700  -0.043 -0.0927 -0.0366 -0.2135
 1215SOL    HW2 3780   0.029   2.632   0.089  0.9738  0.2601  0.1773
 1216SOL     OW 3781   3.447   3.688   1.450 -0.1651  0.2346 -0.8316
 1216SOL    HW1 3782   3.377   3.629   1.480  1.5047 -1.6501 -0.3857
 1216SOL    HW2 3783   3.479   3.728   1.531 -0.8243  1.2513 -1.0588
 1217SOL     OW 3784   3.380   3.307   0.654 -0.0796  0.3366 -0.5826
 1217SOL    HW1 3785   3.332   3.373   0.704  0.1463 -0.3017  0.5038
 1217SOL    HW2 3786   3.462   3.296   0.702  0.2332 -0.1451 -1.2134
 1218SOL     OW 3787   1.452   2.980   0.495  0.4714 -0.3693 -0.1756
 1218SOL    HW1 3788   1.471   2.974   0.588 -0.8138 -0.6798  0.0866
 1218SOL    HW2 3789   1.514   2.918   0.454 -0.7782 -2.3585  0.7626
 1219SOL     OW 3790   1.284   2.834   2.597 -0.3183 -0.9145  0.4212
 1219SOL    HW1 3791   1.355   2.885   2.559 -0.9129  0.8397  1.5274
 1219SOL    HW2 3792   1.223   2.820   2.525 -0.3812  0.4154  0.1982
 1220SOL     OW 3793   2.988   2.779   0.948 -0.3205 -0.0198  0.0282
 1220SOL    HW1 3794   3.048   2.843   0.986 -1.7592  1.2015  0.3629
 1220SOL    HW2 3795   2.990   2.797   0.854 -0.6234  0.4405  0.1081
 1221SOL     OW 3796   0.941   2.401   0.892  0.0863  0.0819  0.5475
 1221SOL    HW1 3797   0.895   2.325   0.926 -1.0651  1.3530  1.9396
 1221SOL    HW2 3798   0.875   2.449   0.841  0.6052  0.5319  0.2799
 1222SOL     OW 3799   1.107   2.420   3.419 -0.2697 -0.5013 -0.2584
 1222SOL    HW1 3800   1.087   2.513   3.431  1.2057 -0.3977  2.2693
 1222SOL    HW2 3801   1.124   2.410   3.326 -1.6072  1.4942 -0.7708
 1223SOL     OW 3802   0.348   0.950   2.696 -0.0642  0.4905  0.4752
 1223SOL    HW1 3803   0.395   0.869   2.678 -0.4818  0.3099  0.1750
 1223SOL    HW2 3804   0.260   0.921   2.720  0.7030  0.5923  4.0907
 1224SOL     OW 3805   1.444   2.495   2.345 -0.4263 -0.4389  0.1347
 1224SOL    HW1 3806   1.514   2.542   2.391  0.5978 -1.7318 -0.0051
 1224SOL    HW2 3807   1.381   2.472   2.413  0.6869 -1.6466  0.8062
 1225SOL     OW 3808   0.465   3.228   2.670 -0.1178 -0.3804  0.2471
 1225SOL    HW1 3809   0.518   3.173   2.728  0.3115  1.0967  1.3310
 1225SOL    HW2 3810   0.384   3.179   2.657  0.7131 -1.7856  0.1974
 1226SOL     OW 3811   0.948   0.846   2.490  0.1272  0.3248 -0.3870
 1226SOL    HW1 3812   1.033   0.887   2.504  1.3061 -1.3018 -2.2815
 1226SOL    HW2 3813   0.931   0.797   2.571  0.8601  0.8691  0.1046
 1227SOL     OW 3814   1.483   3.295   0.420 -0.3536  0.3187 -0.3220
 1227SOL    HW1 3815   1.458   3.249   0.340 -0.1041  0.5414 -0.5257
 1227SOL    HW2 3816   1.422   3.261   0.486 -0.1781 -0.3010 -0.4693
 1228SOL     OW 3817   1.333   0.869   1.229  1.0263 -0.0557 -0.0025
 1228SOL    HW1 3818   1.314   0.936   1.295  0.8065 -0.7556  0.6590
 1228SOL    HW2 3819   1.250   0.824   1.216  1.1486 -0.1350 -0.5152
 1229SOL     OW 3820   2.680   1.760   0.748  0.0639  0.3417 -0.0103
 1229SOL    HW1 3821   2.718   1.673   0.738  0.0554  0.2523  0.6963
 1229SOL    HW2 3822   2.661   1.767   0.841 -0.5216  0.8566 -0.1647
 1230SOL     OW 3823   1.234  -0.000   1.763 -0.7245 -0.3656 -0.8450
 1230SOL    HW1 3824   1.214   0.087   1.797  2.5505 -0.1019  0.7706
 1230SOL    HW2 3825   1.269   0.016   1.675 -0.2838 -0.0475 -0.6160
 1231SOL     OW 3826   1.197   0.584   1.090  0.3253  0.2528  0.3506
 1231SOL    HW1 3827   1.170   0.667   1.129  1.5063  0.6318  0.3984
 1231SOL    HW2 3828   1.289   0.574   1.116  0.1200 -1.2270  0.6173
 1232SOL     OW 3829   2.467   2.853   1.349 -0.0333 -0.1745 -0.0818
 1232SOL    HW1 3830   2.377   2.827   1.366  0.4982 -1.2212  1.2642
 1232SOL    HW2 3831   2.514   2.833   1.430  0.8816  2.9503  0.2855
 1233SOL     OW 3832   1.972   3.645   3.643 -0.1849  0.2679  0.1146
 1233SOL    HW1 3833   1.903   3.712   3.644  2.8786  3.7262  0.3721
 1233SOL    HW2 3834   1.969   3.606   3.730  0.0388  2.5705  1.2408
 1234SOL     OW 3835   2.290   1.799   0.896  0.0705  0.5407 -0.3158
 1234SOL    HW1 3836   2.309   1.791   0.802 -1.2194  1.5847 -0.7066
 1234SOL    HW2 3837   2.199   1.770   0.904 -0.4031  2.0952  0.2890
 1235SOL     OW 3838   2.916   2.917   0.089  0.1053 -0.0760  0.4938
 1235SOL    HW1 3839   2.975   2.941   0.161  1.2093 -3.8584  1.0975
 1235SOL    HW2 3840   2.969   2.860   0.033 -0.9380  2.0894 -3.0670
 1236SOL     OW 3841   2.030   1.033   0.770 -0.4304 -0.0370 -0.2523
 1236SOL    HW1 3842   2.103   1.087   0.741 -1.0994  1.9936  1.5875
 1236SOL    HW2 3843   2.067   0.977   0.838 -0.1924 -0.4770 -0.7293
 1237SOL     OW 3844   1.695   1.156   2.306  0.1386  0.2587  0.6233
 1237SOL    HW1 3845   1.689   1.205   2.223 -1.1553 -0.7752  0.0824
 1237SOL    HW2 3846   1.787   1.132   2.312  0.2163  0.1415 -0.6539
 1238SOL     OW 3847   1.041   0.719   0.272  0.7029 -0.2707 -0.2805
 1238SOL    HW1 3848   1.076   0.717   0.361  1.9827 -1.2771 -0.7691
 1238SOL    HW2 3849   1.095   0.784   0.227 -0.6925  1.0973 -0.0689
 1239SOL     OW 3850   3.686   2.451   2.141 -0.3180  0.0221 -0.0250
 1239SOL    HW1 3851   3.778   2.475   2.152  0.2364 -1.8605 -0.2338
 1239SOL    HW2 3852   3.638   2.532   2.157  1.3939  1.1582 -0.3530
 1240SOL     OW 3853   1.983   3.623   2.229  0.1340 -0.0756 -0.3415
 1240SOL    HW1 3854   1.922   3.592   2.297 -0.2072  0.1241 -0.5511
 1240SOL    HW2 3855   2.070   3.605   2.264 -0.0494 -0.7121 -0.1917
 1241SOL     OW 3856   2.957   1.915   1.013  0.4056 -0.2403 -0.2206
 1241SOL    HW1 3857   3.029   1.885   0.958  0.3803 -1.1939  0.2397
 1241SOL    HW2 3858   2.987   1.901   1.103 -0.0836  0.0024 -0.0099
 1242SOL     OW 3859   2.868   1.124   0.075  0.1798 -0.1342 -0.4190
 1242SOL    HW1 3860   2.904   1.092  -0.007 -0.2412  0.7859 -0.9786
 1242SOL    HW2 3861   2.937   1.110   0.140  0.8615 -0.0216 -1.1178
 1243SOL     OW 3862   0.256   1.061   1.114  0.0226 -0.5807  0.1312
 1243SOL    HW1 3863   0.241   1.099   1.201 -3.8038 -1.9110  0.2417
 1243SOL    HW2 3864   0.311   1.124   1.069 -0.0222  1.4146  2.6613
 1244SOL     OW 3865   2.540   1.324   1.373  0.1531  0.0972  0.0114
 1244SOL    HW1 3866   2.635   1.312   1.380  0.0881 -1.4157 -1.1305
 1244SOL    HW2 3867   2.511   1.254   1.314 -1.8749 -0.3448  1.4250
 1245SOL     OW 3868   0.203   2.898   0.617 -0.1464 -0.1917  0.4486
 1245SOL    HW1 3869   0.172   2.840   0.686 -2.1544 -0.5552 -0.6623
 1245SOL    HW2 3870   0.186   2.850   0.536 -0.7336  1.4070 -0.4443
 1246SOL     OW 3871   2.440   0.917   3.667 -0.1484 -0.0826 -0.1045
 1246SOL    HW1 3872   2.475   0.913   3.578  1.1645 -2.5910  0.4432
 1246SOL    HW2 3873   2.355   0.873   3.662 -0.6560  0.8798 -0.3075
 1247SOL     OW 3874   1.595   2.979   3.741 -0.0749 -0.3535  0.4318
 1247SOL    HW1 3875   1.551   3.061   3.721 -1.2988 -1.5397 -2.4038
 1247SOL    HW2 3876   1.623   2.946   3.655  4.9960 -0.5344  1.8661
 1248SOL     OW 3877   1.372   3.170   0.992  0.3348  0.8693 -0.3643
 1248SOL    HW1 3878   1.459   3.200   0.964 -0.6839  1.7589 -2.8826
 1248SOL    HW2 3879   1.315   3.192   0.919 -1.5597 -2.2253  0.0270
 1249SOL     OW 3880   0.686   2.582   2.740 -0.3169  0.5654 -0.0163
 1249SOL    HW1 3881   0.768   2.600   2.786  0.5543  2.0834 -2.0537
 1249SOL    HW2 3882   0.623   2.563   2.811  1.4006  0.8712  1.6701
 1250SOL     OW 3883   2.154   2.730   0.585 -0.5136 -0.4472  0.1855
 1250SOL    HW1 3884   2.149   2.668   0.512 -2.0828 -0.7067  0.4683
 1250SOL    HW2 3885   2.138   2.815   0.545  3.9626  0.2779 -0.6156
 1251SOL     OW 3886   1.177   2.092   1.185 -0.3821  0.2520  0.0596
 1251SOL    HW1 3887   1.263   2.127   1.160 -0.4875 -0.5246 -1.4530
 1251SOL    HW2 3888   1.143   2.157   1.247  2.3474 -0.6447  2.8022
 1252SOL     OW 3889   0.608   1.958   2.525  0.2762 -0.0708  0.4663
 1252SOL    HW1 3890   0.571   1.873   2.549 -0.2862 -0.7453 -2.3406
 1252SOL    HW2 3891   0.536   2.020   2.537 -0.4832 -0.6472 -0.8611
 1253SOL     OW 3892   0.664   3.082   2.071 -0.4369 -0.8338 -0.7283
 1253SOL    HW1 3893   0.627   3.093   2.159  0.7436  2.7035 -0.5099
 1253SOL    HW2 3894   0.592   3.047   2.019 -1.6316 -1.5846  1.2898
 1254SOL     OW 3895   0.194   2.147   0.708 -0.5200  0.3382 -0.1894
 1254SOL    HW1 3896   0.165   2.229   0.748 -0.5539  0.3424 -0.2229
 1254SOL    HW2 3897   0.170   2.079   0.771 -0.8458  0.3147 -0.3399
 1255SOL     OW 3898   3.559   0.659   2.407  0.2540  0.2828 -0.1519
 1255SOL    HW1 3899   3.610   0.612   2.341  0.6680  0.0221  0.3416
 1255SOL    HW2 3900   3.471   0.665   2.370  0.3442 -0.3569 -0.4846
 1256SOL     OW 3901   3.551   2.202   2.507  0.4347  0.0237 -0.0506
 1256SOL    HW1 3902   3.569   2.200   2.601  0.8385 -0.3471 -0.1305
 1256SOL    HW2 3903   3.551   2.110   2.480  1.4166  0.1633 -0.6056
 1257SOL     OW 3904   1.571   1.111   1.448 -0.5601 -0.5776  0.7554
 1257SOL    HW1 3905   1.612   1.128   1.533 -1.5240 -0.8417  1.2833
 1257SOL    HW2 3906   1.585   1.192   1.398  0.2384 -0.5189  1.0619
 1258SOL     OW 3907   1.300   0.808   0.432 -0.3846 -0.0586 -0.3682
 1258SOL    HW1 3908   1.294   0.904   0.432  1.4180  0.0923 -0.2660
 1258SOL    HW2 3909   1.348   0.787   0.353 -1.5693 -0.9849 -0.8743
 1259SOL     OW 3910   1.807   3.227   1.175 -0.1489  0.0387 -0.0855
 1259SOL    HW1 3911   1.770   3.179   1.249  1.8119 -0.2704  0.7360
 1259SOL    HW2 3912   1.874   3.284   1.213  0.3987  0.4183 -1.5289
 1260SOL     OW 3913   2.895   3.642   1.607 -0.3873 -0.9085 -0.2790
 1260SOL    HW1 3914   2.979   3.688   1.596 -0.1968 -1.1972 -0.0698
 1260SOL    HW2 3915   2.838   3.681   1.541 -0.7623  0.8371  1.0137
 1261SOL     OW 3916   2.834   1.850   1.412  0.5689 -0.7370  0.4102
 1261SOL    HW1 3917   2.799   1.939   1.400  1.9561 -0.3165 -0.7310
 1261SOL    HW2 3918   2.806   1.826   1.500 -0.4924  0.5209  0.4567
 1262SOL     OW 3919   2.118   0.916   3.068  0.1097 -0.4204  0.1127
 1262SOL    HW1 3920   2.060   0.936   3.141 -0.8340 -1.0163 -0.4485
 1262SOL    HW2 3921   2.092   0.829   3.039  0.0354  0.0462 -1.3244
 1263SOL     OW 3922   0.187   0.890   3.122  0.0789 -0.3429  0.0269
 1263SOL    HW1 3923   0.164   0.864   3.212  1.5626 -1.4497  0.1450
 1263SOL    HW2 3924   0.280   0.914   3.128  0.2117 -0.4967 -1.2202
 1264SOL     OW 3925   1.162   2.522   1.432 -0.3326  0.4545 -0.4114
 1264SOL    HW1 3926   1.226   2.450   1.438  0.4421  1.1412 -0.1955
 1264SOL    HW2 3927   1.078   2.478   1.418 -0.1615 -0.6209  1.4789
 1265SOL     OW 3928   0.711   2.210   2.786  0.1557 -0.0730 -0.3523
 1265SOL    HW1 3929   0.718   2.260   2.705  1.4966 -3.4749 -2.5645
 1265SOL    HW2 3930   0.620   2.180   2.788  0.3540 -0.7630 -1.1732
 1266SOL     OW 3931   1.073   1.016   1.784  0.7809  0.3150  0.6138
 1266SOL    HW1 3932   1.103   1.011   1.694  0.1872 -0.6085  0.4459
 1266SOL    HW2 3933   1.148   0.986   1.836  1.2793  1.3001  0.4697
 1267SOL     OW 3934   0.591   0.106   3.159 -0.1366 -1.0402  1.6803
 1267SOL    HW1 3935   0.498   0.110   3.135 -0.1742  0.3689  1.9957
 1267SOL    HW2 3936   0.603   0.017   3.192 -1.8190 -0.7359  3.3106
 1268SOL     OW 3937   1.586   1.065   3.150  0.3672 -0.1452 -0.5526
 1268SOL    HW1 3938   1.609   1.145   3.198  2.0172 -1.4698  1.0253
 1268SOL    HW2 3939   1.516   1.025   3.202 -0.9720  0.5784 -1.7356
 1269SOL     OW 3940   2.069   3.481   1.062  0.2412 -0.5055  0.4820
 1269SOL    HW1 3941   2.005   3.459   1.130 -1.1682 -0.4390 -0.7812
 1269SOL    HW2 3942   2.064   3.409   1.000 -0.7348  0.8556 -1.1023
 1270SOL     OW 3943   0.264   2.459   2.162 -0.2641  0.0328 -0.0119
 1270SOL    HW1 3944   0.357   2.450   2.182 -0.6018 -0.8911  1.2558
 1270SOL    HW2 3945   0.236   2.371   2.137 -0.4054  0.6713 -2.3257
 1271SOL     OW 3946   1.239   2.605   2.200 -0.5782  0.7569  0.6216
 1271SOL    HW1 3947   1.329   2.584   2.227 -0.4741  0.3974  0.0220
 1271SOL    HW2 3948   1.187   2.530   2.228 -0.8260  1.2734  1.5942
 1272SOL     OW 3949   2.981   2.166   2.940  0.1888 -0.4525  0.1539
 1272SOL    HW1 3950   2.958   2.204   2.855 -0.7785 -1.1553  0.0847
 1272SOL    HW2 3951   3.048   2.225   2.975  0.1852  0.1679 -0.8394
 1273SOL     OW 3952   1.028   3.528   1.401  0.1588 -0.1493 -0.1212
 1273SOL    HW1 3953   1.068   3.441   1.409  0.7264  0.1212  0.0491
 1273SOL    HW2 3954   1.099   3.584   1.370  1.3441  1.3386  4.4105
 1274SOL     OW 3955   3.463   2.401   3.161 -0.4183 -0.3972 -0.2209
 1274SOL    HW1 3956   3.555   2.403   3.133 -1.0409  2.0005 -2.4823
 1274SOL    HW2 3957   3.465   2.440   3.248  0.6217  0.7258 -0.7089
 1275SOL     OW 3958   3.368   3.010   1.763 -0.2885  0.1103  0.3996
 1275SOL    HW1 3959   3.381   3.104   1.751 -0.6096  0.1606  0.4373
 1275SOL    HW2 3960   3.436   2.969   1.710 -0.5575  0.3541 -0.1374
 1276SOL     OW 3961   3.254   1.549   0.250 -0.0217  0.5088  0.3185
 1276SOL    HW1 3962   3.174   1.601   0.240 -0.0549  0.2085 -1.3943
 1276SOL    HW2 3963   3.325   1.614   0.248 -0.1682  0.6730  0.4748
 1277SOL     OW 3964   1.263   2.968   3.418  0.4067  0.0728  0.0262
 1277SOL    HW1 3965   1.237   2.917   3.341  0.6347  2.0858 -1.4617
 1277SOL    HW2 3966   1.284   3.055   3.383  0.1294  1.1733  2.4306
 1278SOL     OW 3967   3.568   3.670   1.016 -0.2310  0.5656  0.5979
 1278SOL    HW1 3968   3.537   3.749   0.971  1.3070  0.4014 -0.8324
 1278SOL    HW2 3969   3.611   3.703   1.095  0.5583  1.1986 -0.0787
 1279SOL     OW 3970   3.450   2.754   0.310 -0.0241 -0.2197 -0.1042
 1279SOL    HW1 3971   3.441   2.766   0.405 -0.7905 -0.0560 -0.1869
 1279SOL    HW2 3972   3.479   2.839   0.278 -0.0893 -0.1785 -0.0539
 1280SOL     OW 3973   2.133   1.597   0.110  0.0972  0.4748  0.2406
 1280SOL    HW1 3974   2.228   1.609   0.103  0.4634 -2.0357 -0.0893
 1280SOL    HW2 3975   2.102   1.602   0.019  0.0370  0.4102  0.2575
 1281SOL     OW 3976   0.331   0.019   2.680 -0.0156  0.6260 -0.2052
 1281SOL    HW1 3977   0.296   0.092   2.629  0.6374  0.7173 -0.5435
 1281SOL    HW2 3978   0.339  -0.053   2.617 -0.4813  0.3133  0.0840
 1282SOL     OW 3979   0.893   2.096   2.537 -0.5917  0.2187  0.5577
 1282SOL    HW1 3980   0.950   2.117   2.611  1.5175  0.1137 -0.9375
 1282SOL    HW2 3981   0.819   2.049   2.576  0.0309  0.8744  2.6600
 1283SOL     OW 3982   0.802   2.202   0.988 -0.4154 -0.3244  0.0878
 1283SOL    HW1 3983   0.811   2.156   1.072  0.5166  1.0250  0.7592
 1283SOL    HW2 3984   0.729   2.262   1.001 -0.5473 -0.4166 -0.2211
 1284SOL     OW 3985   2.248   0.621   2.674  0.5333 -0.3701  0.4468
 1284SOL    HW1 3986   2.210   0.601   2.588  0.5935  0.3843  0.2427
 1284SOL    HW2 3987   2.268   0.715   2.671  1.5841 -0.5601  0.8745
 1285SOL     OW 3988   1.137   3.502   1.903  0.6603 -0.2967  0.6911
 1285SOL    HW1 3989   1.045   3.490   1.881  0.2069  0.1089  2.2007
 1285SOL    HW2 3990   1.168   3.570   1.843  0.1384 -0.8174 -0.1846
 1286SOL     OW 3991   2.402   1.830   1.161  0.8702  0.0323 -0.0075
 1286SOL    HW1 3992   2.456   1.754   1.184  0.0397 -0.3274  0.8129
 1286SOL    HW2 3993   2.389   1.821   1.066  0.6916 -0.9208  0.0914
 1287SOL     OW 3994  -0.025   0.199   1.465 -0.2220  0.0756  0.0749
 1287SOL    HW1 3995   0.069   0.191   1.455 -0.1841  0.1516  0.3475
 1287SOL    HW2 3996  -0.039   0.203   1.560 -0.3665  1.6401  0.0045
 1288SOL     OW 3997   0.753   2.609   0.847 -0.1544 -0.4022  0.1976
 1288SOL    HW1 3998   0.825   2.660   0.811  1.3304 -1.9962  0.7567
 1288SOL    HW2 3999   0.712   2.667   0.911 -0.8994  1.3505 -1.7573
 1289SOL     OW 4000   2.065   0.030   2.889 -0.3204 -0.1488  0.2036
 1289SOL    HW1 4001   2.058   0.123   2.870 -2.3164 -0.6416 -2.0194
 1289SOL    HW2 4002   1.992   0.012   2.948 -0.2663 -0.3756  0.2037
 1290SOL     OW 4003   0.914   0.283   3.358 -0.1560 -0.1665 -0.0889
 1290SOL    HW1 4004   0.853   0.356   3.354 -0.0758 -0.1659 -2.2885
 1290SOL    HW2 4005   0.946   0.284   3.448 -0.7423  2.0118  0.1565
 1291SOL     OW 4006   3.285   3.199   3.294 -0.1607  0.9964 -0.1095
 1291SOL    HW1 4007   3.352   3.158   3.240  0.6465  0.0835  1.4912
 1291SOL    HW2 4008   3.312   3.291   3.299  0.2905  0.8899 -0.4800
 1292SOL     OW 4009   3.680   0.886   0.183 -0.4546 -0.3501  0.3152
 1292SOL    HW1 4010   3.767   0.852   0.202 -0.2616 -0.0302  0.0124
 1292SOL    HW2 4011   3.664   0.861   0.092 -0.6393 -0.3274  0.3411
 1293SOL     OW 4012   3.342   0.118   2.922 -0.4739  0.1882  1.2675
 1293SOL    HW1 4013   3.258   0.074   2.907 -0.2001 -0.4313  1.5275
 1293SOL    HW2 4014   3.317   0.205   2.954 -1.0828  1.2953 -1.8008
 1294SOL     OW 4015   1.352   0.529   0.361 -0.2131 -0.1772 -0.7924
 1294SOL    HW1 4016   1.324   0.605   0.412 -0.5776 -0.7117 -0.1936
 1294SOL    HW2 4017   1.309   0.454   0.402  1.2756 -0.9037 -0.4706
 1295SOL     OW 4018   1.317   3.530   1.099  0.1665 -0.0783  0.0741
 1295SOL    HW1 4019   1.319   3.439   1.068 -0.8401  0.0386 -0.3775
 1295SOL    HW2 4020   1.224   3.550   1.107  0.3122  1.5432 -1.7210
 1296SOL     OW 4021   2.532   2.915   2.933 -0.4816 -0.3860  0.0805
 1296SOL    HW1 4022   2.450   2.951   2.968 -0.9923 -0.0547 -1.3609
 1296SOL    HW2 4023   2.595   2.986   2.941  0.5302 -1.4440  3.6854
 1297SOL     OW 4024   1.172   0.242   1.872  0.2380  0.2992 -0.4352
 1297SOL    HW1 4025   1.117   0.225   1.795 -1.2359 -0.2687  0.6955
 1297SOL    HW2 4026   1.186   0.337   1.870 -2.6026  0.8248  0.3551
 1298SOL     OW 4027   2.148   2.715   2.618  0.0346 -0.0012  0.2784
 1298SOL    HW1 4028   2.110   2.683   2.537  1.5880 -2.2659  0.3546
 1298SOL    HW2 4029   2.238   2.682   2.617  0.1546  0.0529  2.8327
 1299SOL     OW 4030   1.840   0.085   1.904  0.4544  0.5930  0.5187
 1299SOL    HW1 4031   1.872   0.060   1.817 -0.9595  0.8743 -0.1191
 1299SOL    HW2 4032   1.909   0.139   1.941  0.8636  0.8907 -0.6517
 1300SOL     OW 4033   3.154   3.606   2.368 -0.2129  0.1017 -0.1157
 1300SOL    HW1 4034   3.152   3.584   2.275  0.2765  0.2284 -0.1569
 1300SOL    HW2 4035   3.127   3.525   2.412 -0.1241 -0.0579 -0.3499
 1301SOL     OW 4036   3.198   0.358   2.176 -0.3782  0.7223 -0.2751
 1301SOL    HW1 4037   3.251   0.303   2.234 -1.5428  0.5736  0.6847
 1301SOL    HW2 4038   3.112   0.360   2.217 -0.9123  1.6002 -1.3882
 1302SOL     OW 4039   1.075   2.135   0.462 -0.4656 -0.5773  0.7964
 1302SOL    HW1 4040   0.987   2.104   0.440  0.2521 -2.0700 -0.1378
 1302SOL    HW2 4041   1.077   2.135   0.558 -0.5277 -3.5667  0.8823
 1303SOL     OW 4042   1.571   2.850   2.780 -0.4062 -0.6450  0.0928
 1303SOL    HW1 4043   1.657   2.843   2.821 -0.3551 -1.9214 -0.1902
 1303SOL    HW2 4044   1.510   2.821   2.848 -0.7459  1.3214  0.6721
 1304SOL     OW 4045   3.591   0.232   1.176 -0.4288  0.1698 -0.3607
 1304SOL    HW1 4046   3.597   0.222   1.271  1.3494  0.2626 -0.4218
 1304SOL    HW2 4047   3.682   0.241   1.147 -1.0142  1.9690 -1.8836
 1305SOL     OW 4048   2.167   1.113   2.178  0.1137 -0.1666  0.2970
 1305SOL    HW1 4049   2.174   1.031   2.129  0.6132  0.0979 -0.0792
 1305SOL    HW2 4050   2.233   1.170   2.139  1.7296 -0.4996  2.3712
 1306SOL     OW 4051   1.487   1.857   0.760 -0.3843  0.1215 -0.4260
 1306SOL    HW1 4052   1.418   1.922   0.750  0.3354  0.6779 -2.1849
 1306SOL    HW2 4053   1.473   1.796   0.687  0.1389 -0.5575  0.0328
 1307SOL     OW 4054   2.379   2.443   1.083 -0.4113 -0.2976 -0.4027
 1307SOL    HW1 4055   2.408   2.526   1.119 -0.5140 -0.3586 -0.1775
 1307SOL    HW2 4056   2.356   2.390   1.159  0.1105 -0.7012 -0.5243
 1308SOL     OW 4057   1.079   2.143   3.510 -0.3863  0.3950 -0.0820
 1308SOL    HW1 4058   1.052   2.106   3.426  1.7442  0.5688 -0.8980
 1308SOL    HW2 4059   1.098   2.235   3.490 -1.6552  0.9364  1.0371
 1309SOL     OW 4060   2.387   3.737   3.044  0.5425 -0.2126  0.2250
 1309SOL    HW1 4061   2.473   3.697   3.028  0.8090 -0.5078  2.1264
 1309SOL    HW2 4062   2.324   3.667   3.025  0.7753 -0.2808 -0.3059
 1310SOL     OW 4063   2.132   3.696   0.833 -0.0092 -0.0621  0.2146
 1310SOL    HW1 4064   2.114   3.735   0.748 -1.5103  4.2747  2.2123
 1310SOL    HW2 4065   2.228   3.691   0.837  0.1297  0.7343 -1.3014
 1311SOL     OW 4066   1.497   1.236   0.378  0.5182 -0.0321 -0.1783
 1311SOL    HW1 4067   1.563   1.195   0.322  0.9415 -2.0480  1.6267
 1311SOL    HW2 4068   1.413   1.212   0.338  0.8184  0.9794 -1.4682
 1312SOL     OW 4069   3.173   0.608   1.461 -0.3964 -0.1875  0.0961
 1312SOL    HW1 4070   3.127   0.657   1.393  0.5138  1.6702  0.7598
 1312SOL    HW2 4071   3.252   0.658   1.478  0.8672 -2.2008  0.4524
 1313SOL     OW 4072   1.990   1.725   3.557  0.1460 -0.2257  0.2315
 1313SOL    HW1 4073   2.036   1.809   3.559 -1.2417  0.5461  1.3395
 1313SOL    HW2 4074   2.032   1.677   3.485 -0.2377  2.1283 -1.7225
 1314SOL     OW 4075   3.158   1.587   0.537 -0.1798  0.2851  0.2546
 1314SOL    HW1 4076   3.118   1.529   0.471 -1.7946  2.2057 -0.5657
 1314SOL    HW2 4077   3.083   1.635   0.574  0.3605 -1.9011  4.8588
 1315SOL     OW 4078   2.662   1.294   1.034  0.1599 -0.5433 -0.5546
 1315SOL    HW1 4079   2.659   1.213   0.983 -0.0351 -1.3162  0.6309
 1315SOL    HW2 4080   2.711   1.270   1.113 -1.0964  0.1048  0.4541
 1316SOL     OW 4081   3.294   3.465   1.698  0.0094 -0.0656  0.0216
 1316SOL    HW1 4082   3.270   3.436   1.610 -0.4757  0.6211 -0.0779
 1316SOL    HW2 4083   3.380   3.425   1.714  1.1236  1.4913 -1.6141
 1317SOL     OW 4084   1.585   0.262   0.627  0.2711  0.1803  0.1143
 1317SOL    HW1 4085   1.581   0.172   0.658  1.4430 -1.2132 -3.2870
 1317SOL    HW2 4086   1.670   0.268   0.582 -0.4935  2.4623 -1.1943
 1318SOL     OW 4087   0.348   0.419   3.482 -0.2455 -0.4610  0.3613
 1318SOL    HW1 4088   0.388   0.483   3.423 -3.5582 -0.0858 -1.7332
 1318SOL    HW2 4089   0.358   0.335   3.438 -0.0164 -0.6725  0.8071
 1319SOL     OW 4090   3.612   3.112   3.698  0.3520 -0.3425  0.3472
 1319SOL    HW1 4091   3.560   3.079   3.625  0.2545  0.2411  0.1478
 1319SOL    HW2 4092   3.621   3.205   3.681  0.7203 -0.2823  0.8433
 1320SOL     OW 4093   0.183   3.524   2.462 -0.9300 -0.0891  0.2025
 1320SOL    HW1 4094   0.248   3.486   2.520 -0.4199 -0.1865 -0.4237
 1320SOL    HW2 4095   0.163   3.609   2.501 -1.2100 -0.4956  0.9680
 1321SOL     OW 4096   2.528   0.109   0.939  0.4922  0.3248 -0.2476
 1321SOL    HW1 4097   2.543   0.093   1.032  1.7489  0.9213 -0.3287
 1321SOL    HW2 4098   2.449   0.059   0.918  0.6772 -0.4890  0.9401
 1322SOL     OW 4099   2.030   1.996   1.975  0.8617  0.5775  0.1660
 1322SOL    HW1 4100   2.012   2.062   2.041 -2.6173  0.3906 -0.4093
 1322SOL    HW2 4101   2.041   1.915   2.024 -1.2496  0.5165  0.6000
 1323SOL     OW 4102   2.699   3.173   3.214 -0.1302 -0.3900 -0.1927
 1323SOL    HW1 4103   2.711   3.189   3.308  0.0883 -2.8754  0.2753
 1323SOL    HW2 4104   2.682   3.079   3.208 -0.2768 -0.2662 -2.6576
 1324SOL     OW 4105   1.839   0.907   2.537 -1.3227 -0.0298  0.4589
 1324SOL    HW1 4106   1.790   0.953   2.605  0.3941 -0.4380  2.0624
 1324SOL    HW2 4107   1.881   0.976   2.486 -1.2432  0.2607  0.9114
 1325SOL     OW 4108   2.770   1.688   1.009  0.6597 -0.4744  0.1161
 1325SOL    HW1 4109   2.752   1.601   0.973 -1.6822  0.5691 -1.5270
 1325SOL    HW2 4110   2.864   1.699   0.998  0.8960 -2.4964 -0.3529
 1326SOL     OW 4111   0.407   1.783   2.623 -0.1862  0.7155 -0.6788
 1326SOL    HW1 4112   0.365   1.712   2.671 -0.6719  1.5521  0.1464
 1326SOL    HW2 4113   0.430   1.848   2.689  1.8123  0.6039 -1.1711
 1327SOL     OW 4114   0.207   0.539   2.108  0.1350 -0.0804  0.1045
 1327SOL    HW1 4115   0.258   0.538   2.027  0.3587  3.7227  0.0351
 1327SOL    HW2 4116   0.273   0.546   2.178 -0.1690  0.4966  0.3346
 1328SOL     OW 4117   2.232   1.798   1.607  0.0553 -0.1922  0.3233
 1328SOL    HW1 4118   2.244   1.871   1.668  1.7603 -0.2491  0.0910
 1328SOL    HW2 4119   2.159   1.748   1.644  0.5664  0.1809  1.9106
 1329SOL     OW 4120   2.314   0.813   2.283 -0.4344  0.0720 -0.3427
 1329SOL    HW1 4121   2.314   0.840   2.375  0.4184  1.4970 -0.7463
 1329SOL    HW2 4122   2.222   0.822   2.256 -0.1188  3.5494 -0.6815
 1330SOL     OW 4123   3.665   0.784   3.648  0.6414 -0.1011 -0.1543
 1330SOL    HW1 4124   3.747   0.735   3.639  0.6706 -0.6427  2.3264
 1330SOL    HW2 4125   3.641   0.807   3.558  2.9003 -0.9098 -1.0463
 1331SOL     OW 4126   2.536   0.033   0.265  0.1943  0.1762  0.0728
 1331SOL    HW1 4127   2.511  -0.037   0.203 -0.1375  0.1880  0.1910
 1331SOL    HW2 4128   2.631   0.040   0.255  0.1353  0.2401 -0.5066
 1332SOL     OW 4129   1.512   0.261   2.401 -0.0867 -0.4934 -0.4020
 1332SOL    HW1 4130   1.440   0.309   2.443 -0.2669 -0.7741 -0.3854
 1332SOL    HW2 4131   1.556   0.326   2.346 -0.0958 -0.2204 -0.0863
 1333SOL     OW 4132   0.846   2.583   1.687  0.2414  0.3489 -0.2578
 1333SOL    HW1 4133   0.927   2.563   1.640  0.5700 -1.9351  1.1200
 1333SOL    HW2 4134   0.871   2.582   1.779 -1.0687  1.1531  0.1313
 1334SOL     OW 4135   0.726   0.368   2.388 -0.0900 -0.1853  0.1392
 1334SOL    HW1 4136   0.774   0.342   2.309 -0.9834 -1.5573  0.0251
 1334SOL    HW2 4137   0.668   0.294   2.406  0.6660 -0.2736  2.5475
 1335SOL     OW 4138   2.456   1.501   1.604  0.0317  0.4876  0.2320
 1335SOL    HW1 4139   2.373   1.456   1.619 -0.4966  0.8383 -1.4789
 1335SOL    HW2 4140   2.509   1.438   1.557  1.5324 -0.4606  2.9422
 1336SOL     OW 4141   3.582   1.144   0.061 -0.5934  0.1384 -0.8710
 1336SOL    HW1 4142   3.558   1.205   0.130 -0.8922 -0.5883 -0.3220
 1336SOL    HW2 4143   3.589   1.060   0.105 -3.0938 -0.8058 -2.0729
 1337SOL     OW 4144   0.883   2.395   1.318 -0.0136  0.2078 -0.2739
 1337SOL    HW1 4145   0.794   2.374   1.288  0.2580 -0.3511 -0.7208
 1337SOL    HW2 4146   0.878   2.387   1.413 -0.2285 -0.7565 -0.3473
 1338SOL     OW 4147   2.148   2.696   0.064 -0.3875  0.2143  0.4687
 1338SOL    HW1 4148   2.134   2.765  -0.001 -2.6343  0.6338  1.2892
 1338SOL    HW2 4149   2.236   2.711   0.098  0.0803  1.1714 -1.0836
 1339SOL     OW 4150   1.994   3.649   2.624  0.0158 -0.5699  0.0023
 1339SOL    HW1 4151   2.027   3.688   2.705 -0.8156  0.1696  0.0037
 1339SOL    HW2 4152   1.903   3.678   2.619  0.1272 -0.3699 -1.3305
 1340SOL     OW 4153   1.156   2.849   3.183 -0.3952  0.4931 -0.3758
 1340SOL    HW1 4154   1.066   2.825   3.162 -0.7603  1.6631 -0.2210
 1340SOL    HW2 4155   1.165   2.939   3.151 -0.0495  1.2798  1.7556
 1341SOL     OW 4156   0.771   0.621   2.411  0.0480 -0.2607 -0.1515
 1341SOL    HW1 4157   0.722   0.650   2.488  1.4147  0.1492  0.5836
 1341SOL    HW2 4158   0.767   0.526   2.415 -0.3813 -0.2355  0.0959
 1342SOL     OW 4159   3.083   1.612   2.632 -0.3098  0.6824 -0.0383
 1342SOL    HW1 4160   3.129   1.683   2.588 -0.5439  0.0328 -1.3997
 1342SOL    HW2 4161   2.992   1.641   2.637 -0.1684  1.0223  0.6016
 1343SOL     OW 4162   0.112   1.405   0.964 -0.9644  0.3786  0.2883
 1343SOL    HW1 4163   0.182   1.395   1.028 -1.7255 -0.1913  1.0464
 1343SOL    HW2 4164   0.042   1.348   0.995  0.1539 -3.5199 -3.2977
 1344SOL     OW 4165   0.364   0.123   3.631  0.2220 -0.3158 -0.3317
 1344SOL    HW1 4166   0.288   0.168   3.593  1.3657  0.5101 -1.7465
 1344SOL    HW2 4167   0.345   0.120   3.725 -1.0604  0.8363 -0.5145
 1345SOL     OW 4168   1.293   1.083   0.221  0.7807 -0.6571 -0.2792
 1345SOL    HW1 4169   1.344   1.138   0.162 -0.2028  0.5882 -0.0092
 1345SOL    HW2 4170   1.270   1.007   0.168  1.2071 -0.2849 -1.0162
 1346SOL     OW 4171   1.718   3.595   2.382 -0.1436 -0.3134  0.6086
 1346SOL    HW1 4172   1.710   3.532   2.310  1.1785  0.1455  0.0354
 1346SOL    HW2 4173   1.630   3.629   2.394 -0.5106 -0.8907 -0.3364
 1347SOL     OW 4174   0.212   0.787   1.878  0.5200 -0.3145 -0.1053
 1347SOL    HW1 4175   0.214   0.720   1.947 -0.3005 -0.6755 -0.4204
 1347SOL    HW2 4176   0.119   0.807   1.867  0.6894  0.1497 -0.7209
 1348SOL     OW 4177   2.725   1.933   2.933 -0.4835  0.1053  0.9085
 1348SOL    HW1 4178   2.698   1.994   3.002  0.5687  1.1188  0.4366
 1348SOL    HW2 4179   2.820   1.928   2.941 -0.4888 -0.9347  0.4784
 1349SOL     OW 4180   1.543   2.898   2.525  0.4414  0.0105  0.2278
 1349SOL    HW1 4181   1.528   2.881   2.618  2.4126 -2.2845  0.2195
 1349SOL    HW2 4182   1.624   2.949   2.522 -0.3858  1.3713 -0.2348
 1350SOL     OW 4183   2.403   2.613   2.590  0.3663  0.1442 -0.2881
 1350SOL    HW1 4184   2.447   2.690   2.552 -1.4438 -0.3779 -3.9290
 1350SOL    HW2 4185   2.471   2.547   2.596  1.0276  0.6523 -1.6965
 1351SOL     OW 4186   2.131   0.346   3.259 -0.3973 -0.4637  0.1559
 1351SOL    HW1 4187   2.129   0.307   3.171 -1.6357  2.1980 -1.0994
 1351SOL    HW2 4188   2.196   0.416   3.252  0.0983 -0.7418  1.6555
 1352SOL     OW 4189   3.105   2.418   1.462  1.0159 -0.1143 -0.2199
 1352SOL    HW1 4190   3.026   2.461   1.429  0.0130 -2.2750 -0.8487
 1352SOL    HW2 4191   3.116   2.452   1.551  1.2652  2.5855 -1.2063
 1353SOL     OW 4192   0.257   3.531   1.717 -0.3296  0.4818  0.2896
 1353SOL    HW1 4193   0.243   3.533   1.812  2.0662 -0.3555  0.7195
 1353SOL    HW2 4194   0.169   3.538   1.680 -1.3223  0.8612  2.5591
 1354SOL     OW 4195   1.236   0.009   1.494 -0.5270 -0.2498 -0.5629
 1354SOL    HW1 4196   1.292  -0.046   1.439  0.0010  0.3279 -0.6049
 1354SOL    HW2 4197   1.177   0.053   1.433  0.1070  0.4470 -0.6871
 1355SOL     OW 4198   3.482   3.058   1.465  0.2466 -0.1648 -0.1856
 1355SOL    HW1 4199   3.545   3.115   1.421 -0.4391  1.6722  1.0455
 1355SOL    HW2 4200   3.535   3.000   1.518  0.9603  0.8159  0.2085
 1356SOL     OW 4201   1.832   3.251   3.744  0.4673  0.0727  0.1385
 1356SOL    HW1 4202   1.738   3.237   3.729 -0.0972  1.6978  1.8276
 1356SOL    HW2 4203   1.871   3.250   3.656 -1.4203  1.2738 -0.7674
 1357SOL     OW 4204   1.440   2.612   0.369 -0.4827 -1.0049 -0.3475
 1357SOL    HW1 4205   1.457   2.665   0.291  0.1530  0.5864  0.8135
 1357SOL    HW2 4206   1.512   2.633   0.428 -2.2961 -0.0768  1.7097
 1358SOL     OW 4207   0.087   0.418   2.409  0.3333 -0.3263  0.0015
 1358SOL    HW1 4208   0.151   0.471   2.456 -0.6605  1.6712 -0.7820
 1358SOL    HW2 4209   0.123   0.408   2.321  0.1795 -0.3374 -0.0613
 1359SOL     OW 4210   3.698   0.244   3.274 -0.1564 -0.3469  0.1154
 1359SOL    HW1 4211   3.639   0.281   3.208  1.6029  0.8247 -0.8882
 1359SOL    HW2 4212   3.784   0.250   3.234  0.9151 -0.0663  2.3468
 1360SOL     OW 4213   2.928   2.437   3.333 -0.3593  0.5552 -0.8873
 1360SOL    HW1 4214   3.021   2.451   3.349 -0.4715 -0.3302  0.8307
 1360SOL    HW2 4215   2.913   2.346   3.360 -1.4159  0.1140 -2.7320
 1361SOL     OW 4216   1.743   1.805   1.416 -0.5378 -0.0250 -0.0797
 1361SOL    HW1 4217   1.765   1.847   1.499 -1.8656  2.1135 -0.7188
 1361SOL    HW2 4218   1.820   1.820   1.361  0.1172 -0.9440  0.5561
 1362SOL     OW 4219   1.698   2.012   2.002  0.0680  0.1293  0.3203
 1362SOL    HW1 4220   1.763   2.035   1.936  0.1447 -0.9884 -0.0180
 1362SOL    HW2 4221   1.743   2.025   2.086  0.9524 -1.1743  0.0796
 1363SOL     OW 4222   1.507   3.448   1.958  0.2870 -0.1555 -0.7308
 1363SOL    HW1 4223   1.490   3.515   1.892 -0.1706  0.1057 -0.3520
 1363SOL    HW2 4224   1.509   3.366   1.909 -1.8575 -0.1910 -0.8517
 1364SOL     OW 4225   0.655   2.235   1.248 -0.4159 -0.6821  0.1495
 1364SOL    HW1 4226   0.619   2.275   1.169 -1.6525 -1.3415  0.3598
 1364SOL    HW2 4227   0.614   2.149   1.252  1.5447 -1.6727  0.1604
 1365SOL     OW 4228   2.253   3.498   2.923  0.2654 -0.6103  0.0632
 1365SOL    HW1 4229   2.180   3.556   2.946 -1.7686 -2.5890 -1.0709
 1365SOL    HW2 4230   2.261   3.506   2.828  2.4029  0.4662  0.2716
 1366SOL     OW 4231   1.795   2.989   0.520  0.4153  0.3564  0.1272
 1366SOL    HW1 4232   1.750   2.917   0.477  0.5513  0.7110 -0.6326
 1366SOL    HW2 4233   1.786   3.063   0.459 -1.1640  1.4641  1.6056
 1367SOL     OW 4234   1.207   0.760   2.293 -0.1947 -0.4366  0.0522
 1367SOL    HW1 4235   1.241   0.704   2.362 -0.3748  0.0755  0.5671
 1367SOL    HW2 4236   1.273   0.757   2.224  0.8510  0.4328  0.9719
 1368SOL     OW 4237   2.324   3.140   2.778  0.0054 -0.2372 -0.3595
 1368SOL    HW1 4238   2.258   3.074   2.757 -0.3997  0.8183 -2.7505
 1368SOL    HW2 4239   2.290   3.221   2.739  0.7405  1.3061  2.0205
 1369SOL     OW 4240   1.104   3.235   1.481  0.0944 -0.0418  0.2123
 1369SOL    HW1 4241   1.093   3.145   1.451  2.3623 -0.3495  0.1030
 1369SOL    HW2 4242   1.167   3.273   1.420  1.1431  0.7913  1.7484
 1370SOL     OW 4243   1.969   0.757   1.411  0.1161  0.9199  0.7188
 1370SOL    HW1 4244   1.899   0.695   1.393  0.7257 -0.1639  1.8950
 1370SOL    HW2 4245   1.940   0.839   1.372  0.5051 -0.6698 -3.3507
 1371SOL     OW 4246   1.540   3.563   0.461 -0.8759  0.4982 -0.7759
 1371SOL    HW1 4247   1.531   3.558   0.556 -1.5955  0.5992 -0.8304
 1371SOL    HW2 4248   1.508   3.479   0.430 -1.2138  0.6944 -0.9632
 1372SOL     OW 4249   0.820   0.216   1.970  0.1081  0.0964  0.2169
 1372SOL    HW1 4250   0.835   0.297   1.921 -1.3521  1.2778  1.6057
 1372SOL    HW2 4251   0.781   0.156   1.906 -0.8104  1.2470 -0.3393
 1373SOL     OW 4252   0.165   3.441   0.302  0.0091  0.4978  0.0203
 1373SOL    HW1 4253   0.183   3.426   0.395  1.9785  1.5071 -0.1510
 1373SOL    HW2 4254   0.123   3.527   0.299  1.3347  1.1695 -0.1064
 1374SOL     OW 4255   2.575   2.498   1.378  0.4756 -0.4736 -0.2823
 1374SOL    HW1 4256   2.555   2.543   1.296  1.2630 -0.2562 -0.3561
 1374SOL    HW2 4257   2.632   2.558   1.426  2.6808 -1.8913 -0.9662
 1375SOL     OW 4258   1.517   0.073   0.321 -0.0910 -0.0960 -0.1238
 1375SOL    HW1 4259   1.604   0.103   0.294 -0.7049  0.0369 -2.0954
 1375SOL    HW2 4260   1.534  -0.003   0.377  1.2906  0.0428 -0.3101
 1376SOL     OW 4261   0.064   0.488   0.191 -0.0093  0.1764  0.3679
 1376SOL    HW1 4262   0.042   0.409   0.141  1.9755 -1.6734  2.1966
 1376SOL    HW2 4263   0.110   0.544   0.129 -0.3730 -0.6222 -0.6572
 1377SOL     OW 4264   1.405   3.544   2.680 -0.0623 -0.2071 -0.0864
 1377SOL    HW1 4265   1.372   3.483   2.614 -1.7603  0.9951 -0.4014
 1377SOL    HW2 4266   1.412   3.628   2.634  0.7161  0.2073  0.7519
 1378SOL     OW 4267   1.353   0.130   0.573 -0.5016 -0.2998 -0.1777
 1378SOL    HW1 4268   1.397   0.080   0.504 -0.4430 -1.2590  0.5366
 1378SOL    HW2 4269   1.413   0.201   0.593 -1.0037  0.6502 -1.8666
 1379SOL     OW 4270   3.350   0.941   0.165 -0.4032 -0.1092  0.5549
 1379SOL    HW1 4271   3.335   0.847   0.175 -0.4684 -0.3830 -1.7696
 1379SOL    HW2 4272   3.276   0.973   0.114  0.2568  0.9621  0.2350
 1380SOL     OW 4273   0.155   0.186   2.503  0.4801  0.0978  0.2453
 1380SOL    HW1 4274   0.135   0.270   2.462  0.0282 -1.4046 -2.8554
 1380SOL    HW2 4275   0.081   0.130   2.482  0.6897 -1.1062  2.4119
 1381SOL     OW 4276   3.619   2.232   1.370 -0.0885  0.5549 -0.1913
 1381SOL    HW1 4277   3.595   2.163   1.432  1.2542  1.4540  1.4307
 1381SOL    HW2 4278   3.560   2.220   1.296 -0.8695 -1.4022  0.6827
 1382SOL     OW 4279   3.516   1.283   0.677  0.1328  0.5209  0.1724
 1382SOL    HW1 4280   3.490   1.191   0.667  1.4552  0.0910  0.4433
 1382SOL    HW2 4281   3.610   1.283   0.661  0.3797  1.6303  1.4559
 1383SOL     OW 4282   2.593   0.933   2.363 -0.4841 -0.3807  0.9981
 1383SOL    HW1 4283   2.653   0.973   2.300 -0.9155  1.0980  1.4905
 1383SOL    HW2 4284   2.588   0.841   2.336  0.4108 -0.0814 -0.2806
 1384SOL     OW 4285   0.753   1.744   0.497 -0.6510 -0.4940  0.2205
 1384SOL    HW1 4286   0.685   1.778   0.555  0.2672  0.2218  0.9000
 1384SOL    HW2 4287   0.705   1.707   0.422 -1.7442  2.9546 -0.9764
 1385SOL     OW 4288   3.620   1.774   2.654 -0.8156 -0.3790  0.2099
 1385SOL    HW1 4289   3.623   1.697   2.712  0.3700 -0.7592 -0.3232
 1385SOL    HW2 4290   3.712   1.803   2.648 -1.2864  1.3421  0.7252
 1386SOL     OW 4291   1.485   1.207   0.063  0.0959  0.2427 -0.2824
 1386SOL    HW1 4292   1.526   1.140   0.008 -0.0774  0.5473 -0.7842
 1386SOL    HW2 4293   1.462   1.277   0.003  0.1628  0.7076  0.2210
 1387SOL     OW 4294   2.404   1.080   2.456 -0.3144  0.1779  0.1379
 1387SOL    HW1 4295   2.421   1.168   2.423 -0.5548  0.7989  1.5584
 1387SOL    HW2 4296   2.478   1.028   2.426  0.3029  1.0906  0.0270
 1388SOL     OW 4297   3.362   0.025   2.067 -0.3118  0.2610 -0.0980
 1388SOL    HW1 4298   3.410   0.107   2.073  0.8640 -0.4609  0.7610
 1388SOL    HW2 4299   3.318   0.029   1.982  0.7320  1.2323 -0.6157
 1389SOL     OW 4300   2.145   3.049   3.099  0.0991 -0.3486 -0.1227
 1389SOL    HW1 4301   2.234   3.071   3.071  0.2620  0.4577  0.9748
 1389SOL    HW2 4302   2.105   3.008   3.022  1.7540 -1.7439 -0.3080
 1390SOL     OW 4303   2.452   3.468   1.532  0.2027  0.2131 -0.1905
 1390SOL    HW1 4304   2.389   3.451   1.602  0.2316  0.8395 -0.0071
 1390SOL    HW2 4305   2.447   3.562   1.518 -0.6632 -0.0493 -1.8523
 1391SOL     OW 4306   1.629   1.307   3.292 -0.3919  0.0766  0.1204
 1391SOL    HW1 4307   1.724   1.307   3.280 -0.5033 -1.0547 -0.9973
 1391SOL    HW2 4308   1.599   1.387   3.248  0.0791  0.7390  0.9790
 1392SOL     OW 4309   2.269   2.394   0.130  0.2717  0.3602 -0.4523
 1392SOL    HW1 4310   2.237   2.333   0.196 -0.5332  0.5066 -0.7005
 1392SOL    HW2 4311   2.238   2.359   0.047  0.9588  0.3789 -0.7235
 1393SOL     OW 4312   1.772   0.945   0.831  0.0703  0.0737  0.4065
 1393SOL    HW1 4313   1.720   0.885   0.778  0.6008  0.8198 -1.0086
 1393SOL    HW2 4314   1.863   0.929   0.803  0.2283  1.4503  0.0476
 1394SOL     OW 4315   2.403   0.198   0.410  0.5746 -0.5273 -0.5039
 1394SOL    HW1 4316   2.324   0.199   0.356  0.3212 -0.9390 -0.1427
 1394SOL    HW2 4317   2.458   0.131   0.370  0.0998 -1.3168  0.1509
 1395SOL     OW 4318   1.326   0.342   2.586 -0.3909 -0.0789  0.2181
 1395SOL    HW1 4319   1.239   0.372   2.561 -1.2185 -2.5049 -0.1239
 1395SOL    HW2 4320   1.318   0.320   2.679  0.0959  0.4085  0.3826
 1396SOL     OW 4321   0.417   3.564   0.941 -0.3353  0.2593 -0.3822
 1396SOL    HW1 4322   0.396   3.538   0.851 -0.2018  0.1204 -0.3722
 1396SOL    HW2 4323   0.496   3.617   0.933  0.3353 -0.6880 -0.2274
 1397SOL     OW 4324   0.260   0.835   0.538  0.7358 -0.3589 -0.5769
 1397SOL    HW1 4325   0.257   0.847   0.443  1.0704 -0.8679 -0.6560
 1397SOL    HW2 4326   0.226   0.747   0.552 -0.6985  0.2360 -0.0954
 1398SOL     OW 4327   1.932   1.322   3.392 -0.2564  0.2661 -0.5420
 1398SOL    HW1 4328   1.854   1.313   3.445  0.7559  1.6300  1.3005
 1398SOL    HW2 4329   1.998   1.268   3.435  0.5860  1.3874 -0.3845
 1399SOL     OW 4330   0.160   1.573   2.110 -0.3042 -0.7490 -0.1197
 1399SOL    HW1 4331   0.186   1.576   2.202  1.1295 -1.4417 -0.4683
 1399SOL    HW2 4332   0.079   1.522   2.110 -1.5471  1.0917  0.9659
 1400SOL     OW 4333   3.475   2.554   1.574  0.4045 -0.4317  0.9468
 1400SOL    HW1 4334   3.427   2.636   1.563  0.1740 -0.6358  0.4255
 1400SOL    HW2 4335   3.497   2.552   1.667 -1.1732 -0.6588  1.3302
 1401SOL     OW 4336   2.175   2.397   2.967  0.1581 -0.5041  0.0170
 1401SOL    HW1 4337   2.123   2.441   2.900 -1.7617 -0.6424  1.3209
 1401SOL    HW2 4338   2.238   2.463   2.996 -1.8362  1.0464  1.0668
 1402SOL     OW 4339   1.915   2.139   2.688 -0.2425 -0.1964  0.3884
 1402SOL    HW1 4340   1.969   2.217   2.677 -0.1542  0.0238  2.0801
 1402SOL    HW2 4341   1.974   2.074   2.724 -0.0865 -1.4006 -1.8600
 1403SOL     OW 4342   0.209   1.208   0.245 -0.4451 -0.9856  0.0115
 1403SOL    HW1 4343   0.305   1.207   0.245 -0.4348 -2.9854 -0.5805
 1403SOL    HW2 4344   0.186   1.248   0.161 -0.0876 -2.2180 -0.7014
 1404SOL     OW 4345   1.497   0.332   3.069  0.6660  1.0776  0.4038
 1404SOL    HW1 4346   1.554   0.256   3.083  0.1169 -0.2736 -3.5522
 1404SOL    HW2 4347   1.420   0.314   3.122  1.6312  0.2139  1.5787
 1405SOL     OW 4348   1.792   2.498   0.724 -0.2225  0.1978  0.0091
 1405SOL    HW1 4349   1.868   2.549   0.752 -0.2925  0.7042 -0.6750
 1405SOL    HW2 4350   1.828   2.435   0.661 -0.1976 -0.3213  0.5462
 1406SOL     OW 4351   1.562   1.898   3.149 -0.2217  0.1818  0.3065
 1406SOL    HW1 4352   1.579   1.989   3.125 -0.4509 -0.1167 -1.0347
 1406SOL    HW2 4353   1.555   1.900   3.245 -2.1983  1.9112  0.1814
 1407SOL     OW 4354   1.370   1.921   1.958 -0.3585  0.9553  0.2655
 1407SOL    HW1 4355   1.429   1.885   2.023 -0.0935 -0.4829 -0.7253
 1407SOL    HW2 4356   1.393   1.876   1.877 -0.8958  2.4476 -0.7672
 1408SOL     OW 4357   1.361   2.109   0.251 -0.4234  0.5211  0.1612
 1408SOL    HW1 4358   1.346   2.203   0.237  2.0322  1.2014  1.5593
 1408SOL    HW2 4359   1.452   2.103   0.279 -0.4674 -2.3349 -0.0401
 1409SOL     OW 4360   0.754   1.358   3.086 -0.5002 -0.0549 -0.0764
 1409SOL    HW1 4361   0.742   1.443   3.129  0.8927  0.8815 -1.4682
 1409SOL    HW2 4362   0.848   1.345   3.083 -0.6915 -1.7751  0.2913
 1410SOL     OW 4363   0.260   2.525   2.415 -0.9953  0.1733 -0.0820
 1410SOL    HW1 4364   0.274   2.505   2.322 -0.7245  0.5636 -0.1296
 1410SOL    HW2 4365   0.206   2.453   2.447 -0.4078 -0.3969 -0.3409
 1411SOL     OW 4366   1.889   3.141   0.776  0.7871 -0.2240 -0.8109
 1411SOL    HW1 4367   1.858   3.076   0.712 -0.1889  0.7479 -1.3585
 1411SOL    HW2 4368   1.875   3.225   0.733  3.1109  0.3460 -0.5687
 1412SOL     OW 4369   1.811   2.145   1.371 -0.6436 -0.4506 -0.1753
 1412SOL    HW1 4370   1.727   2.099   1.374 -1.1450  0.4542  0.0820
 1412SOL    HW2 4371   1.865   2.099   1.435 -0.1518 -2.4708 -1.9064
 1413SOL     OW 4372   2.639   3.648   2.408  0.7547 -0.3223  0.0133
 1413SOL    HW1 4373   2.672   3.607   2.328 -0.0925  0.7291 -0.9061
 1413SOL    HW2 4374   2.710   3.636   2.472  2.5493  1.0121 -1.5981
 1414SOL     OW 4375   0.472   2.686   1.978  0.3153  0.3054  0.1434
 1414SOL    HW1 4376   0.413   2.625   1.934  1.5258 -0.6798 -0.1693
 1414SOL    HW2 4377   0.521   2.632   2.040  1.9846  0.7694 -0.7125
 1415SOL     OW 4378   2.455   3.066   2.031  0.0940  0.1442  0.3727
 1415SOL    HW1 4379   2.539   3.035   2.064 -0.4413  0.1589  1.8358
 1415SOL    HW2 4380   2.477   3.134   1.968  1.1750  0.0433  0.6286
 1416SOL     OW 4381   2.977   1.250   0.938 -0.2320  0.5891 -0.0256
 1416SOL    HW1 4382   3.021   1.298   0.868 -0.1388  1.7472  0.8012
 1416SOL    HW2 4383   2.959   1.316   1.005 -0.8022 -0.3889  0.8149
 1417SOL     OW 4384   2.831   0.911   1.569  0.2010 -0.8009 -0.2014
 1417SOL    HW1 4385   2.839   1.005   1.586  1.8103 -1.0631  0.6958
 1417SOL    HW2 4386   2.774   0.878   1.638  0.3655 -0.6119  0.0266
 1418SOL     OW 4387   1.762   1.664   0.588 -0.0720 -0.0005 -0.7251
 1418SOL    HW1 4388   1.812   1.628   0.661 -0.6523  1.4064  0.4200
 1418SOL    HW2 4389   1.679   1.617   0.591 -0.1432  0.1437 -0.3936
 1419SOL     OW 4390   1.052   0.480   2.246 -0.0459 -0.4323 -0.0586
 1419SOL    HW1 4391   1.011   0.405   2.203  1.1897 -1.3070  0.2529
 1419SOL    HW2 4392   1.138   0.487   2.204  0.5167 -0.2601  1.0978
 1420SOL     OW 4393   1.881   1.208   0.222  0.3570  0.1133  0.1729
 1420SOL    HW1 4394   1.795   1.177   0.250  2.0881 -4.9700  0.9200
 1420SOL    HW2 4395   1.934   1.209   0.302  1.6295  0.4514 -0.6431
 1421SOL     OW 4396   3.558   0.863   0.895  0.6442 -0.4011  0.4078
 1421SOL    HW1 4397   3.649   0.864   0.926  1.1719 -2.2013 -0.8656
 1421SOL    HW2 4398   3.565   0.881   0.802 -0.2497 -0.9192  0.2302
 1422SOL     OW 4399   2.580   2.065   2.690 -0.3705 -0.4265 -0.0158
 1422SOL    HW1 4400   2.602   1.972   2.681 -0.0903 -0.3213 -0.4818
 1422SOL    HW2 4401   2.485   2.067   2.692 -0.3661 -0.8809  1.8342
 1423SOL     OW 4402   3.630   3.710   2.461  0.1863  0.3162 -0.1946
 1423SOL    HW1 4403   3.543   3.694   2.498 -0.0754  1.2407 -0.3879
 1423SOL    HW2 4404   3.636   3.651   2.386 -1.2238  1.8858 -1.6272
 1424SOL     OW 4405   0.415   1.254   0.968 -0.6143  0.1795 -0.0341
 1424SOL    HW1 4406   0.488   1.192   0.964 -1.6641 -1.1290  0.2984
 1424SOL    HW2 4407   0.431   1.306   1.047  0.6117  0.7644 -0.6619
 1425SOL     OW 4408   2.931   2.915   1.959 -0.3085 -0.4921  0.0064
 1425SOL    HW1 4409   2.968   2.916   1.870 -0.9846  2.5541 -0.3228
 1425SOL    HW2 4410   3.008   2.920   2.016  0.0383  0.3756 -0.5135
 1426SOL     OW 4411   1.979   0.183   0.894 -0.0895 -0.7677 -0.1382
 1426SOL    HW1 4412   1.888   0.158   0.876  0.1516 -2.2609  0.5570
 1426SOL    HW2 4413   2.027   0.101   0.892  1.2407 -0.0034 -0.3858
 1427SOL     OW 4414  -0.007   2.377   3.573  0.2894  0.0141  0.0755
 1427SOL    HW1 4415   0.069   2.337   3.615 -0.2103 -0.2730  0.7226
 1427SOL    HW2 4416  -0.025   2.455   3.624 -0.7879 -0.7434  0.8951
 1428SOL     OW 4417   1.909   2.169   0.351 -0.4986 -0.4303  0.1526
 1428SOL    HW1 4418   1.855   2.226   0.296  1.1712 -0.9631 -2.2179
 1428SOL    HW2 4419   1.861   2.087   0.357 -1.0470 -0.1111  0.1207
 1429SOL     OW 4420   3.244   0.683   3.535  0.4255 -0.2020 -0.7253
 1429SOL    HW1 4421   3.152   0.676   3.561  0.5938  1.9823  0.6951
 1429SOL    HW2 4422   3.260   0.777   3.528  1.7209 -0.5544 -4.2748
 1430SOL     OW 4423   0.693   1.482   3.560  0.0793  0.4098 -0.4521
 1430SOL    HW1 4424   0.764   1.449   3.504 -1.2791 -1.7496 -1.0429
 1430SOL    HW2 4425   0.683   1.414   3.627 -0.8354  1.1125  0.1399
 1431SOL     OW 4426   0.703   0.712   0.417 -0.4120  0.7831 -0.1109
 1431SOL    HW1 4427   0.791   0.678   0.430 -0.6694 -1.1519 -2.6346
 1431SOL    HW2 4428   0.712   0.807   0.422  2.4441  0.8251 -3.0854
 1432SOL     OW 4429   3.651   1.883   0.842  0.1193 -0.8988 -0.5023
 1432SOL    HW1 4430   3.580   1.879   0.906  2.1163 -1.8096  1.8421
 1432SOL    HW2 4431   3.686   1.794   0.840  0.6094 -0.7042 -2.3368
 1433SOL     OW 4432   0.124   3.022   0.149  0.3132  0.3645  0.0907
 1433SOL    HW1 4433   0.104   3.076   0.226 -0.9714 -0.2962  0.2541
 1433SOL    HW2 4434   0.050   3.037   0.090  1.4354  1.1111 -1.1798
 1434SOL     OW 4435   2.009   2.662   0.800  0.5363  0.9344 -0.8483
 1434SOL    HW1 4436   2.039   2.722   0.732  2.3275  1.0872  0.0237
 1434SOL    HW2 4437   2.088   2.614   0.826 -0.2981  0.2299  0.4843
 1435SOL     OW 4438   0.573   1.320   0.668  0.0365 -0.0768  0.3219
 1435SOL    HW1 4439   0.600   1.245   0.721  2.0331  0.2702 -0.1041
 1435SOL    HW2 4440   0.650   1.378   0.668 -0.7003  0.9747 -1.1107
 1436SOL     OW 4441   1.991   2.392   3.711  0.1071  0.1034  0.0135
 1436SOL    HW1 4442   2.059   2.417   3.772 -0.7580  0.3022  0.9157
 1436SOL    HW2 4443   1.984   2.466   3.651 -0.3224  0.7191  0.8087
 1437SOL     OW 4444   2.392   1.642   0.082 -0.0828  0.0629  0.0216
 1437SOL    HW1 4445   2.426   1.647   0.171  3.2714  2.0855 -1.1954
 1437SOL    HW2 4446   2.416   1.555   0.051 -1.8990 -0.9184  1.2423
 1438SOL     OW 4447   3.663   0.270   1.737 -0.3007  0.2639  0.1112
 1438SOL    HW1 4448   3.716   0.243   1.813 -0.2013  1.2536  0.4020
 1438SOL    HW2 4449   3.714   0.341   1.697 -0.5096 -0.0404 -0.7024
 1439SOL     OW 4450   0.813   1.553   1.478 -0.3874  0.5337 -0.1110
 1439SOL    HW1 4451   0.759   1.478   1.504 -0.6255 -0.7849 -3.7326
 1439SOL    HW2 4452   0.750   1.624   1.463 -0.8454 -0.1339 -1.5376
 1440SOL     OW 4453   0.397   0.407   0.061  0.4711 -0.2015  0.9998
 1440SOL    HW1 4454   0.435   0.390  -0.025 -2.7795  0.0485 -0.6348
 1440SOL    HW2 4455   0.409   0.324   0.109  0.4639 -1.0883 -0.4627
 1441SOL     OW 4456   1.489   0.864   1.004 -0.2209  0.4798  0.5563
 1441SOL    HW1 4457   1.543   0.942   1.015 -1.2160  1.5278 -1.4286
 1441SOL    HW2 4458   1.440   0.857   1.086  0.1318  1.7188  0.8939
 1442SOL     OW 4459   3.594   2.698   2.998  0.2074 -0.0336  0.0388
 1442SOL    HW1 4460   3.561   2.617   2.961  0.4650  0.3388 -1.0312
 1442SOL    HW2 4461   3.688   2.696   2.980  0.1871  0.5788 -0.1510
 1443SOL     OW 4462   1.034   3.126   3.078  0.0123  0.3345  0.0226
 1443SOL    HW1 4463   1.000   3.216   3.075  0.1234  0.3758  0.0027
 1443SOL    HW2 4464   1.013   3.096   3.167 -0.5757  0.1629 -0.1677
 1444SOL     OW 4465   0.935   0.663   0.619 -0.3352  0.0939 -0.6969
 1444SOL    HW1 4466   1.031   0.662   0.619 -0.2792  1.7071  0.2895
 1444SOL    HW2 4467   0.912   0.693   0.707 -1.7261  0.6680 -1.2397
 1445SOL     OW 4468   0.155   1.782   1.394 -0.4456  0.5336  0.0340
 1445SOL    HW1 4469   0.148   1.736   1.478 -2.0061  0.2957 -0.1977
 1445SOL    HW2 4470   0.094   1.736   1.337 -1.0673  2.0846 -0.5918
 1446SOL     OW 4471   1.531   3.235   2.594 -0.6872 -0.3220  0.5519
 1446SOL    HW1 4472   1.588   3.276   2.529 -0.9261 -0.4032  0.2873
 1446SOL    HW2 4473   1.461   3.194   2.542 -0.4399 -1.0848  0.8016
 1447SOL     OW 4474   1.296   1.317   0.738  0.1573 -0.1898  0.1929
 1447SOL    HW1 4475   1.311   1.223   0.746  1.1770 -0.0385  0.0912
 1447SOL    HW2 4476   1.278   1.330   0.645  0.6821 -0.1938  0.0883
 1448SOL     OW 4477   2.974   2.637   1.953  0.0160  0.0285 -0.3918
 1448SOL    HW1 4478   2.949   2.729   1.947 -0.4942 -0.1519 -1.2219
 1448SOL    HW2 4479   2.965   2.604   1.863  1.8442 -0.4131 -0.4487
 1449SOL     OW 4480   0.319   3.309   3.306  0.1883  0.1595 -0.0382
 1449SOL    HW1 4481   0.358   3.327   3.391  3.8205 -0.3052 -1.4167
 1449SOL    HW2 4482   0.377   3.244   3.266 -2.9767 -1.8303 -1.8152
 1450SOL     OW 4483   0.377   2.622   1.510  0.0880 -0.4912 -0.4188
 1450SOL    HW1 4484   0.434   2.689   1.472 -0.2928  0.0133 -0.1092
 1450SOL    HW2 4485   0.369   2.555   1.441 -0.4088  0.3053 -1.1546
 1451SOL     OW 4486   1.819   3.200   2.086  0.2014 -0.7686 -0.1285
 1451SOL    HW1 4487   1.751   3.136   2.066  0.3592 -1.1289  0.4854
 1451SOL    HW2 4488   1.883   3.153   2.140 -0.9278  0.5280  2.5176
 1452SOL     OW 4489   3.141   3.162   2.220  0.7535  0.7364  0.1073
 1452SOL    HW1 4490   3.167   3.075   2.189  2.3745  1.2709 -0.1335
 1452SOL    HW2 4491   3.153   3.219   2.144 -3.5871  0.7424 -0.8672
 1453SOL     OW 4492   2.334   1.729   1.907 -0.2874  0.2378 -0.3713
 1453SOL    HW1 4493   2.321   1.799   1.843  0.4186  1.6764  1.0112
 1453SOL    HW2 4494   2.253   1.729   1.958  0.6649  1.8087  1.2398
 1454SOL     OW 4495   1.939   1.851   1.259  0.0642  0.4364 -0.2091
 1454SOL    HW1 4496   2.028   1.822   1.280 -0.0666  0.4709  0.4309
 1454SOL    HW2 4497   1.951   1.936   1.216  0.3720  0.1329 -0.7249
 1455SOL     OW 4498   0.902   1.392   3.425  0.2636  0.3006 -0.0003
 1455SOL    HW1 4499   0.976   1.435   3.381 -1.1441  0.6480 -2.1754
 1455SOL    HW2 4500   0.903   1.302   3.391 -0.9565  0.6236 -0.9278
 1456SOL     OW 4501   3.178   2.985   1.009  0.2703 -0.5608  0.3614
 1456SOL    HW1 4502   3.217   2.996   1.096  0.0038 -1.9277  0.6657
 1456SOL    HW2 4503   3.253   2.984   0.949  0.3727  3.1509  0.1777
 1457SOL     OW 4504   2.554   2.252   2.257  0.7163  0.3046 -0.0223
 1457SOL    HW1 4505   2.503   2.253   2.176 -2.7431 -0.2236  1.9825
 1457SOL    HW2 4506   2.571   2.344   2.276 -3.1888  0.9683  1.2176
 1458SOL     OW 4507   0.806   0.965   0.429  0.6177 -0.3239 -0.1556
 1458SOL    HW1 4508   0.764   1.044   0.394 -0.2786 -0.6872  0.0518
 1458SOL    HW2 4509   0.899   0.976   0.409  0.5977  1.0508  0.3881
 1459SOL     OW 4510   1.139   1.566   1.643 -0.5053 -0.0292 -0.1482
 1459SOL    HW1 4511   1.106   1.592   1.556 -1.1789  1.2746  0.4640
 1459SOL    HW2 4512   1.114   1.475   1.652  0.0787 -0.3567 -1.5546
 1460SOL     OW 4513   2.683   0.873   1.316  0.1502  0.0913  0.4265
 1460SOL    HW1 4514   2.695   0.791   1.268  0.8444 -0.0116  0.7687
 1460SOL    HW2 4515   2.723   0.857   1.401  0.6462  0.9163  0.3566
 1461SOL     OW 4516   1.541   0.281   0.943 -0.5123  0.3561 -0.3899
 1461SOL    HW1 4517   1.609   0.265   1.009 -1.0030 -1.9370 -0.3722
 1461SOL    HW2 4518   1.542   0.376   0.930 -0.4063  0.9026  2.8951
 1462SOL     OW 4519   3.312   1.157   0.432 -0.2328  0.8069 -0.2729
 1462SOL    HW1 4520   3.407   1.145   0.425 -0.1428  0.1344  1.5623
 1462SOL    HW2 4521   3.298   1.251   0.416  0.7891  0.9951 -0.1173
 1463SOL     OW 4522   1.874   0.055   0.645 -0.2665 -0.4335  0.0139
 1463SOL    HW1 4523   1.860  -0.034   0.676  2.1873 -0.0977  2.4651
 1463SOL    HW2 4524   1.941   0.047   0.578 -0.1675 -0.4362  0.1139
 1464SOL     OW 4525   2.834   0.447   0.104  0.0293 -0.4922 -0.1820
 1464SOL    HW1 4526   2.816   0.356   0.126 -1.2580 -0.1657  0.2398
 1464SOL    HW2 4527   2.750   0.492   0.118  0.6431  0.7576 -0.3512
 1465SOL     OW 4528   3.586   0.114   2.775 -0.7580 -0.0053 -0.0970
 1465SOL    HW1 4529   3.602   0.021   2.792 -1.1544 -0.0445  0.0764
 1465SOL    HW2 4530   3.493   0.126   2.793 -0.6849  0.4507 -0.0132
 1466SOL     OW 4531   2.884   2.467   0.114 -0.7252 -0.5269 -0.5377
 1466SOL    HW1 4532   2.809   2.436   0.063 -0.2235  0.2616 -1.8181
 1466SOL    HW2 4533   2.897   2.557   0.085 -1.1276  0.3951  1.8764
 1467SOL     OW 4534  -0.013   2.577   2.570 -0.5309 -0.4210  0.1610
 1467SOL    HW1 4535   0.064   2.542   2.525 -0.3568  1.3844 -1.0439
 1467SOL    HW2 4536  -0.023   2.522   2.647  1.0164 -1.6886 -0.4932
 1468SOL     OW 4537   0.941   2.692   2.873 -0.2883  0.2673 -0.2909
 1468SOL    HW1 4538   0.995   2.713   2.949 -1.0569  1.6161 -0.0966
 1468SOL    HW2 4539   0.938   2.772   2.821 -0.0324 -0.5432 -1.6123
 1469SOL     OW 4540   2.227   1.384   0.856 -0.1806  0.5267  0.1771
 1469SOL    HW1 4541   2.285   1.442   0.906 -0.2913  1.7945 -1.0961
 1469SOL    HW2 4542   2.269   1.299   0.859  2.0555  1.4956 -1.0602
 1470SOL     OW 4543   3.467   1.348   1.851  0.2862  0.2869  0.0310
 1470SOL    HW1 4544   3.443   1.381   1.937  2.7674 -1.9009  1.7509
 1470SOL    HW2 4545   3.535   1.407   1.820  2.8599 -1.4671  1.9180
 1471SOL     OW 4546   3.021   2.557   0.439 -0.1102 -0.2853 -0.1300
 1471SOL    HW1 4547   3.057   2.488   0.494 -1.1571 -1.2795 -0.6510
 1471SOL    HW2 4548   2.927   2.538   0.434 -0.0189 -0.4531 -2.5083
 1472SOL     OW 4549   0.976   1.336   1.915 -0.5114  0.2803 -0.6174
 1472SOL    HW1 4550   1.049   1.385   1.952  0.0925  0.3249 -1.8150
 1472SOL    HW2 4551   0.899   1.388   1.937 -0.0047  1.1616 -0.8668
 1473SOL     OW 4552   1.543   0.925   0.560 -0.7332 -0.1602  0.4013
 1473SOL    HW1 4553   1.547   0.984   0.635 -0.1455  0.6837 -0.2643
 1473SOL    HW2 4554   1.451   0.924   0.535 -0.8900 -0.2450  0.9645
 1474SOL     OW 4555   0.241   0.311   0.351 -0.1145  0.0650 -0.0479
 1474SOL    HW1 4556   0.160   0.329   0.303 -0.0514 -1.0198 -0.5951
 1474SOL    HW2 4557   0.293   0.391   0.341 -0.5756  0.2812 -0.8034
 1475SOL     OW 4558   0.715   2.878   1.775 -0.5326  0.2522  0.4650
 1475SOL    HW1 4559   0.796   2.922   1.799 -1.0116  2.3919 -1.4390
 1475SOL    HW2 4560   0.743   2.808   1.716 -0.0278  0.8718 -0.0517
 1476SOL     OW 4561   2.327   3.569   1.044 -0.2652 -0.5172  0.4259
 1476SOL    HW1 4562   2.237   3.546   1.023 -0.1018 -0.7744 -0.0193
 1476SOL    HW2 4563   2.350   3.516   1.119 -0.0635 -1.4327 -0.2646
 1477SOL     OW 4564   2.203   3.568   1.975  0.4895 -0.1236 -0.3325
 1477SOL    HW1 4565   2.238   3.500   1.918  1.9276 -0.1852  0.5795
 1477SOL    HW2 4566   2.257   3.564   2.054  0.5215  1.9508 -0.1749
 1478SOL     OW 4567   1.039   0.917   1.483  0.2338  0.1896  0.4514
 1478SOL    HW1 4568   1.096   0.992   1.470 -0.9983  0.9131 -1.2195
 1478SOL    HW2 4569   0.950   0.952   1.475 -0.3715 -1.5346 -1.3490
 1479SOL     OW 4570   3.622   1.666   2.065 -0.2165 -0.2730 -0.5540
 1479SOL    HW1 4571   3.540   1.704   2.095 -0.6571 -2.3147  1.0457
 1479SOL    HW2 4572   3.689   1.726   2.096 -1.0045  0.8294 -0.8922
 1480SOL     OW 4573   0.271   2.705   3.391 -0.0119  0.0091 -0.5917
 1480SOL    HW1 4574   0.307   2.660   3.467  1.1309  1.3352 -0.3012
 1480SOL    HW2 4575   0.197   2.755   3.426 -0.6142 -0.7796 -0.7135
 1481SOL     OW 4576   0.631   2.419   1.046  0.7326  0.0510  0.0758
 1481SOL    HW1 4577   0.660   2.458   0.964  3.2079 -1.1813  0.2585
 1481SOL    HW2 4578   0.581   2.488   1.089  0.4587  1.1560 -1.8916
 1482SOL     OW 4579   0.211   1.738   2.433 -0.0010  0.7252 -0.2712
 1482SOL    HW1 4580   0.261   1.762   2.511  0.6182 -0.0634 -0.4103
 1482SOL    HW2 4581   0.237   1.648   2.415 -0.2514  0.8511 -1.3040
 1483SOL     OW 4582   2.537   1.599   2.182 -0.4397 -0.2164  0.2262
 1483SOL    HW1 4583   2.491   1.527   2.224 -0.1267 -0.9701 -0.6953
 1483SOL    HW2 4584   2.613   1.616   2.238  0.6730 -2.0458 -0.6304
 1484SOL     OW 4585   2.499   3.476   2.727  0.7867  0.1362  0.1076
 1484SOL    HW1 4586   2.572   3.421   2.700 -0.0649 -1.2014  0.4326
 1484SOL    HW2 4587   2.487   3.457   2.820  0.3111  0.6675  0.1631
 1485SOL     OW 4588   3.197   1.205   1.490 -0.4291  0.5480  0.0246
 1485SOL    HW1 4589   3.285   1.211   1.454 -0.7926  3.5285 -0.5630
 1485SOL    HW2 4590   3.206   1.233   1.581 -0.8140  1.3488 -0.1739
 1486SOL     OW 4591   1.597   0.683   0.460  0.3371 -0.1395  0.1723
 1486SOL    HW1 4592   1.541   0.624   0.509  1.2336 -0.6974  0.5586
 1486SOL    HW2 4593   1.597   0.765   0.510  1.7823 -0.9166  1.5262
 1487SOL     OW 4594   3.188   2.082   0.486  0.7211 -0.8713 -0.7897
 1487SOL    HW1 4595   3.189   2.165   0.439 -3.4641 -0.6410 -0.8467
 1487SOL    HW2 4596   3.193   2.106   0.578 -0.4659 -0.5006 -0.8083
 1488SOL     OW 4597   0.563   0.474   1.101 -0.3551 -0.2416  0.4286
 1488SOL    HW1 4598   0.640   0.449   1.049 -0.3670 -1.3301  0.9086
 1488SOL    HW2 4599   0.593   0.548   1.154  0.9188 -1.6716  1.8439
 1489SOL     OW 4600   0.499   0.500   2.183  0.4551  0.1759  0.0637
 1489SOL    HW1 4601   0.500   0.488   2.088 -0.9830  1.2891 -0.1212
 1489SOL    HW2 4602   0.523   0.592   2.195  0.0414  0.1935  0.7528
 1490SOL     OW 4603   0.938   1.566   1.159 -0.0521 -0.0195 -0.4213
 1490SOL    HW1 4604   0.936   1.658   1.132 -2.9448  0.1880  0.1678
 1490SOL    HW2 4605   0.913   1.567   1.251 -4.8761 -1.5207 -1.4380
 1491SOL     OW 4606   3.264   1.698   3.449  0.0351  0.7303 -1.2724
 1491SOL    HW1 4607   3.175   1.662   3.437 -0.7401  1.2988  1.8915
 1491SOL    HW2 4608   3.263   1.733   3.538  3.2100  1.5607 -1.4795
 1492SOL     OW 4609   1.217   3.241   0.773  0.0691  0.1892 -0.8645
 1492SOL    HW1 4610   1.162   3.162   0.778 -0.4065  0.4876 -1.3029
 1492SOL    HW2 4611   1.154   3.313   0.768  0.4188  0.4026 -3.9821
 1493SOL     OW 4612   1.488   2.049   2.376 -0.0268 -0.5895  0.2718
 1493SOL    HW1 4613   1.521   1.973   2.423 -0.5785 -0.6543  0.5673
 1493SOL    HW2 4614   1.412   2.077   2.427 -0.9472 -0.9675 -0.8280
 1494SOL     OW 4615   1.859   2.947   3.407  0.4742  0.0511 -0.5297
 1494SOL    HW1 4616   1.949   2.931   3.435  0.0012  0.5869  1.4636
 1494SOL    HW2 4617   1.861   2.939   3.311  2.0825 -2.5152 -0.3486
 1495SOL     OW 4618   0.428   0.541   1.919 -0.5114  0.3665 -0.0299
 1495SOL    HW1 4619   0.453   0.504   1.834  2.2378 -1.8180  1.5787
 1495SOL    HW2 4620   0.475   0.625   1.923  0.1425  0.0202 -0.2884
 1496SOL     OW 4621   1.395   1.867   0.056  0.8888 -0.3523 -0.3109
 1496SOL    HW1 4622   1.404   1.957   0.025 -1.3452 -0.5158 -1.6791
 1496SOL    HW2 4623   1.339   1.875   0.134  1.2129 -0.5180 -0.0582
 1497SOL     OW 4624   3.107   1.009   0.841  0.7423  0.0961  0.1822
 1497SOL    HW1 4625   3.064   1.079   0.891 -0.8656 -0.8438  0.1840
 1497SOL    HW2 4626   3.063   1.010   0.756 -0.1397 -1.6588  0.5839
 1498SOL     OW 4627   1.173   3.441   2.540 -0.8989 -0.1295 -0.9892
 1498SOL    HW1 4628   1.101   3.409   2.596  1.2201 -0.8662  1.5101
 1498SOL    HW2 4629   1.150   3.532   2.521 -1.0528  0.6944  2.4799
 1499SOL     OW 4630   2.139   1.172   3.066  0.2127  0.3218 -0.5663
 1499SOL    HW1 4631   2.125   1.078   3.082  0.2511  0.3532 -0.3380
 1499SOL    HW2 4632   2.055   1.204   3.034  0.5908 -0.0688 -1.9931
 1500SOL     OW 4633   2.998   2.173   0.913 -0.0538 -0.3168  0.0439
 1500SOL    HW1 4634   3.034   2.207   0.996  2.7895 -2.0511 -0.3474
 1500SOL    HW2 4635   2.954   2.092   0.937 -0.5987 -0.0298  0.0340
 1501SOL     OW 4636   3.394   1.035   0.730  1.0567 -0.5063  0.3284
 1501SOL    HW1 4637   3.375   0.965   0.667  1.2872 -1.2836  1.1126
 1501SOL    HW2 4638   3.314   1.042   0.783  0.8643  0.1466 -0.0332
 1502SOL     OW 4639   0.892   0.000   3.081 -0.1848  0.2489  0.1161
 1502SOL    HW1 4640   0.932  -0.024   3.164 -1.0443 -0.0242  0.4565
 1502SOL    HW2 4641   0.882   0.096   3.086 -2.8389 -0.0224  1.5472
 1503SOL     OW 4642   2.506   1.811   2.577 -0.2917 -0.0053  0.4686
 1503SOL    HW1 4643   2.416   1.826   2.605  0.8618  1.5697  3.8716
 1503SOL    HW2 4644   2.514   1.859   2.494 -2.6399 -0.6114 -0.1738
 1504SOL     OW 4645   2.897   2.243   0.329  0.2694  0.0747  0.6023
 1504SOL    HW1 4646   2.851   2.311   0.279 -1.0349 -0.6118  0.8095
 1504SOL    HW2 4647   2.955   2.292   0.388 -0.9667  1.0546  1.0679
 1505SOL     OW 4648   2.100   2.100   2.355 -0.2104 -0.2385 -0.0436
 1505SOL    HW1 4649   2.192   2.100   2.329 -0.2752  0.3838 -0.2825
 1505SOL    HW2 4650   2.091   2.024   2.413  0.8098  0.5910  1.2489
 1506SOL     OW 4651   1.231   2.531   3.139  0.2143 -0.0824 -0.1510
 1506SOL    HW1 4652   1.222   2.610   3.086 -0.1551  0.4392  0.6750
 1506SOL    HW2 4653   1.156   2.477   3.115  1.2986 -0.9078 -1.8771
 1507SOL     OW 4654   1.327   3.158   3.192 -0.1587 -0.0575  0.1910
 1507SOL    HW1 4655   1.281   3.212   3.128 -2.8188 -0.7318  1.4203
 1507SOL    HW2 4656   1.410   3.204   3.206 -0.2370  1.0460 -2.3638
 1508SOL     OW 4657   3.427   1.676   1.349 -0.5277 -0.3332 -0.2504
 1508SOL    HW1 4658   3.364   1.648   1.283 -1.2250  0.4927  0.0366
 1508SOL    HW2 4659   3.383   1.660   1.433 -0.0961 -0.3370 -0.0194
 1509SOL     OW 4660   0.302   1.815   3.162  0.0312  0.1061 -0.4313
 1509SOL    HW1 4661   0.338   1.734   3.198 -0.6498 -0.1101 -0.2132
 1509SOL    HW2 4662   0.308   1.805   3.067 -0.3622 -0.3522 -0.4100
 1510SOL     OW 4663   2.140   0.026   0.547  0.5819  0.7931  0.2221
 1510SOL    HW1 4664   2.186  -0.055   0.525 -1.0888  0.4978 -2.7024
 1510SOL    HW2 4665   2.181   0.092   0.491 -0.5942  1.0942 -0.3269
 1511SOL     OW 4666   0.722   3.113   1.253  0.0955  0.2992 -0.0001
 1511SOL    HW1 4667   0.757   3.092   1.340  1.0148  1.8847  0.0417
 1511SOL    HW2 4668   0.629   3.130   1.268  0.0737 -0.2181  0.5226
 1512SOL     OW 4669   1.761   3.422   0.974 -0.0457  0.1423 -0.1855
 1512SOL    HW1 4670   1.779   3.360   1.045  0.4186 -0.2269 -0.6160
 1512SOL    HW2 4671   1.741   3.504   1.019  1.8847  0.3572  0.3663
 1513SOL     OW 4672   3.526   2.963   3.458  0.5681  0.1167 -0.2295
 1513SOL    HW1 4673   3.563   3.044   3.423 -1.5889  0.6654 -1.4240
 1513SOL    HW2 4674   3.431   2.975   3.452  0.1708 -2.2248  0.2136
 1514SOL     OW 4675   0.097   3.446   3.391  0.3720  0.1836  0.7992
 1514SOL    HW1 4676   0.166   3.393   3.350 -0.0220 -0.1693  0.5895
 1514SOL    HW2 4677   0.069   3.507   3.323 -0.8141 -0.9069  0.2759
 1515SOL     OW 4678   2.432   0.395   2.425  0.3198 -0.2824  0.1442
 1515SOL    HW1 4679   2.462   0.443   2.502  0.3595  1.2899 -0.8231
 1515SOL    HW2 4680   2.503   0.334   2.405  1.0940  0.5656  0.2802
 1516SOL     OW 4681   0.056   1.237   1.799  0.1398 -0.5033  0.1134
 1516SOL    HW1 4682   0.030   1.234   1.892  0.6478  0.1381  0.2800
 1516SOL    HW2 4683   0.086   1.327   1.786 -2.0708  0.1108 -1.2549
 1517SOL     OW 4684   0.845   0.593   1.249 -0.4318  0.3961 -0.2273
 1517SOL    HW1 4685   0.760   0.635   1.239 -0.9134 -0.9004 -2.2779
 1517SOL    HW2 4686   0.908   0.665   1.242 -1.3100  1.1341 -0.7722
 1518SOL     OW 4687   0.987   1.836   0.736 -0.4447 -0.3432 -0.2526
 1518SOL    HW1 4688   0.926   1.803   0.671 -0.2108  0.9063 -1.1510
 1518SOL    HW2 4689   0.954   1.923   0.759  1.1670  0.5394 -1.0588
 1519SOL     OW 4690   2.792   1.694   2.298  1.0734  0.0405 -0.2567
 1519SOL    HW1 4691   2.737   1.773   2.304 -0.2060 -0.8527  0.2951
 1519SOL    HW2 4692   2.878   1.727   2.274  0.6762  1.6584  0.3544
 1520SOL     OW 4693   1.685   1.179   1.718  0.0799  0.1389 -0.4297
 1520SOL    HW1 4694   1.640   1.263   1.726  2.7333  1.5962  0.3692
 1520SOL    HW2 4695   1.776   1.198   1.741  1.6136 -2.1789 -3.7442
 1521SOL     OW 4696   1.667   2.721   0.546 -0.0054  0.7041 -0.3763
 1521SOL    HW1 4697   1.615   2.738   0.624 -0.5753  0.7268 -0.7534
 1521SOL    HW2 4698   1.756   2.711   0.578 -0.4544 -0.9909  0.5052
 1522SOL     OW 4699   2.019   2.661   2.853  0.3108 -0.2138 -0.0216
 1522SOL    HW1 4700   2.066   2.685   2.774 -0.9424  1.7323 -0.2373
 1522SOL    HW2 4701   2.015   2.742   2.905 -0.7241 -0.9049  1.0550
 1523SOL     OW 4702   2.508   2.068   1.236 -0.7149  0.5570  0.0171
 1523SOL    HW1 4703   2.488   1.976   1.217  0.8711 -0.1508  1.4401
 1523SOL    HW2 4704   2.431   2.099   1.284 -0.9048 -0.3210  0.3156
 1524SOL     OW 4705   1.366   1.306   1.836  0.4247 -0.8375  0.3740
 1524SOL    HW1 4706   1.418   1.342   1.908 -0.2427 -1.6474  1.2812
 1524SOL    HW2 4707   1.400   1.350   1.758  0.0152  1.3602  1.3557
 1525SOL     OW 4708   2.792   1.099   2.276  0.1623  0.1939  0.3042
 1525SOL    HW1 4709   2.877   1.073   2.311  0.9506  2.7292  0.4604
 1525SOL    HW2 4710   2.794   1.195   2.275 -1.9134  0.3130 -1.6231
 1526SOL     OW 4711   1.027   3.399   3.074 -0.5549  0.2943  0.5802
 1526SOL    HW1 4712   1.103   3.412   3.017 -1.2637  1.2824 -0.1638
 1526SOL    HW2 4713   0.982   3.483   3.075 -1.9960 -0.4329  0.5068
 1527SOL     OW 4714   3.235   2.403   3.441 -0.5729 -0.0127 -0.4949
 1527SOL    HW1 4715   3.312   2.452   3.411 -1.0294  0.6916 -0.5608
 1527SOL    HW2 4716   3.251   2.388   3.534  0.3304 -1.2049 -0.8279
 1528SOL     OW 4717   3.104   2.979   2.639  0.4461 -0.0233  0.0830
 1528SOL    HW1 4718   3.178   2.932   2.678  2.0042  0.6127 -1.9126
 1528SOL    HW2 4719   3.132   2.997   2.549 -1.6129  1.4438 -0.3357
 1529SOL     OW 4720   0.999   0.661   1.620  0.0616  0.3844 -0.9191
 1529SOL    HW1 4721   1.027   0.732   1.561  1.2570  1.2960  0.6612
 1529SOL    HW2 4722   0.926   0.699   1.669 -0.6697 -0.2310 -1.5164
 1530SOL     OW 4723   3.401   0.019   3.160  0.3728  0.0646 -0.0074
 1530SOL    HW1 4724   3.317   0.039   3.202  0.4642 -2.5415  1.6392
 1530SOL    HW2 4725   3.389   0.045   3.069 -2.7527 -1.4523 -0.1688
 1531SOL     OW 4726   2.865   1.106   2.662  0.3647 -0.5847 -0.3186
 1531SOL    HW1 4727   2.777   1.128   2.633  1.1189  0.6528 -1.8969
 1531SOL    HW2 4728   2.906   1.191   2.679  1.9474 -0.9343 -1.9967
 1532SOL     OW 4729   1.765   3.419   3.033  0.3342  0.2162 -0.1458
 1532SOL    HW1 4730   1.846   3.393   2.990  0.9131  0.7092  0.6201
 1532SOL    HW2 4731   1.779   3.400   3.126 -0.9876 -1.0705 -0.1611
 1533SOL     OW 4732   3.451   2.297   2.082  0.5067  0.9155  0.2967
 1533SOL    HW1 4733   3.470   2.203   2.086  0.8001  0.9345 -0.6251
 1533SOL    HW2 4734   3.535   2.339   2.099  0.2060  1.0353  1.6293
 1534SOL     OW 4735   2.114   2.916   3.619 -0.5402 -0.2066  0.2727
 1534SOL    HW1 4736   2.101   3.005   3.587 -1.5093  0.3953  2.1722
 1534SOL    HW2 4737   2.173   2.876   3.555 -1.0910  1.3779 -1.3093
 1535SOL     OW 4738   3.215   0.126   0.474 -0.4783  0.3083  0.2558
 1535SOL    HW1 4739   3.225   0.163   0.561 -0.1641 -0.3905  0.5202
 1535SOL    HW2 4740   3.137   0.072   0.479 -1.0960  1.1286 -0.2063
 1536SOL     OW 4741   0.693   1.593   3.181 -0.7778  0.3493 -0.3471
 1536SOL    HW1 4742   0.755   1.652   3.223 -0.8246 -0.3070  0.6906
 1536SOL    HW2 4743   0.610   1.610   3.225 -0.5286 -1.3549  0.9140
 1537SOL     OW 4744   3.661   3.627   3.155 -0.0996  0.4368  0.0362
 1537SOL    HW1 4745   3.710   3.669   3.084 -0.4260 -0.8389 -0.9681
 1537SOL    HW2 4746   3.583   3.681   3.165  0.0314  0.7265 -0.4614
 1538SOL     OW 4747   0.986   3.459   0.046  0.0182 -0.2678  0.3094
 1538SOL    HW1 4748   0.964   3.436   0.136  0.3381 -3.3908 -0.2967
 1538SOL    HW2 4749   0.964   3.381  -0.005  0.9528  0.9674 -2.1521
 1539SOL     OW 4750   1.472   0.327   1.975  0.1765 -0.3424 -1.1888
 1539SOL    HW1 4751   1.518   0.378   1.908  3.1787 -1.8583 -0.4563
 1539SOL    HW2 4752   1.499   0.237   1.959 -0.0050 -0.8972  1.2855
 1540SOL     OW 4753   2.575   1.133   0.346  0.1143 -0.0417  0.1977
 1540SOL    HW1 4754   2.492   1.100   0.380 -0.2741  0.1582 -0.5329
 1540SOL    HW2 4755   2.582   1.094   0.259  1.1075 -0.5715  0.4991
 1541SOL     OW 4756   0.929   3.666   2.257 -0.2323  0.1407 -0.2325
 1541SOL    HW1 4757   0.921   3.640   2.349 -2.6819  0.3502 -0.3322
 1541SOL    HW2 4758   0.959   3.587   2.213 -0.3830 -0.3683  0.5550
 1542SOL     OW 4759   2.071   2.979   0.449 -0.3565  0.5220 -0.2822
 1542SOL    HW1 4760   2.007   3.046   0.476  0.2757  0.8836  0.3434
 1542SOL    HW2 4761   2.071   2.984   0.353 -2.2856 -0.4552 -0.3684
 1543SOL     OW 4762   3.622   2.567   0.984 -0.1008 -0.0164 -0.1192
 1543SOL    HW1 4763   3.548   2.603   1.033  0.4492  0.8197  0.1149
 1543SOL    HW2 4764   3.640   2.483   1.025  0.5684  0.8166  1.3690
 1544SOL     OW 4765   2.752   2.444   1.903 -0.0242 -0.1696 -0.2419
 1544SOL    HW1 4766   2.741   2.503   1.977  2.3060  0.1903 -0.1058
 1544SOL    HW2 4767   2.787   2.500   1.833 -1.9384 -0.5500 -1.5775
 1545SOL     OW 4768   2.243   1.325   1.596 -0.2381  0.4948  0.7700
 1545SOL    HW1 4769   2.181   1.252   1.608  1.0147 -0.3515  2.6773
 1545SOL    HW2 4770   2.202   1.380   1.529 -2.3886 -0.7139  0.9701
 1546SOL     OW 4771   2.534   2.312   3.326  0.1425 -0.6236 -0.1876
 1546SOL    HW1 4772   2.523   2.282   3.236 -2.4757  0.1662 -0.2027
 1546SOL    HW2 4773   2.606   2.259   3.361  1.5097 -0.6489 -2.8376
 1547SOL     OW 4774   0.089   3.009   2.882 -0.4830  0.5125 -0.3757
 1547SOL    HW1 4775   0.062   2.972   2.967  0.1243  0.8388 -0.0384
 1547SOL    HW2 4776   0.105   2.932   2.827  0.8069  0.2446  0.3304
 1548SOL     OW 4777   1.022   1.464   0.793 -0.8287  0.0428 -0.3309
 1548SOL    HW1 4778   1.051   1.553   0.814 -0.7646 -0.0185 -0.1531
 1548SOL    HW2 4779   1.103   1.412   0.792 -0.6894  0.2464 -1.8364
 1549SOL     OW 4780   2.292   1.373   3.508  0.2421 -0.5168  0.1277
 1549SOL    HW1 4781   2.362   1.408   3.453 -1.4251  2.0137 -0.5513
 1549SOL    HW2 4782   2.329   1.372   3.596  1.6217 -0.7187 -0.4265
 1550SOL     OW 4783   0.562   2.813   1.447  0.1605 -0.1265  0.1037
 1550SOL    HW1 4784   0.567   2.836   1.354 -1.2851  0.2623  0.1088
 1550SOL    HW2 4785   0.654   2.805   1.474  0.6287  0.8952 -1.0746
 1551SOL     OW 4786   1.210   0.173   2.300  0.3444  0.2341 -0.3359
 1551SOL    HW1 4787   1.142   0.234   2.273 -2.6935 -3.1670 -1.0916
 1551SOL    HW2 4788   1.227   0.121   2.222 -1.2891 -3.3491  1.4746
 1552SOL     OW 4789   2.579   2.428   3.010 -0.0105  0.1371  0.0227
 1552SOL    HW1 4790   2.592   2.507   2.957 -0.0133 -0.2722 -0.5962
 1552SOL    HW2 4791   2.643   2.435   3.081  0.6276  0.2411 -0.5563
 1553SOL     OW 4792   2.234   0.389   2.998 -0.0845  0.0390  0.2646
 1553SOL    HW1 4793   2.319   0.362   2.962 -1.0445 -3.2157  0.0992
 1553SOL    HW2 4794   2.191   0.435   2.926  1.2305  1.1754  0.1494
 1554SOL     OW 4795   0.566   2.873   0.177 -0.2103 -0.5714  0.2284
 1554SOL    HW1 4796   0.597   2.926   0.251 -0.0183  1.7761 -1.4157
 1554SOL    HW2 4797   0.481   2.840   0.205 -0.0197  0.0466  1.6085
 1555SOL     OW 4798   0.727   2.313   2.511 -0.3619 -0.3013 -0.3550
 1555SOL    HW1 4799   0.783   2.243   2.478  0.2067 -1.2430  2.3885
 1555SOL    HW2 4800   0.643   2.298   2.468 -0.3721 -2.9709  0.3984
 1556SOL     OW 4801   0.700   1.654   2.223 -0.0878 -0.1250 -0.0544
 1556SOL    HW1 4802   0.638   1.695   2.163 -0.9252 -0.2435  0.7011
 1556SOL    HW2 4803   0.652   1.647   2.305  0.6769 -0.9225  0.3376
 1557SOL     OW 4804   2.019   0.668   1.857 -0.4336 -0.0052  0.0113
 1557SOL    HW1 4805   2.050   0.587   1.815 -2.6127 -0.8117 -0.1516
 1557SOL    HW2 4806   1.944   0.641   1.909 -0.7156  1.8128  0.6074
 1558SOL     OW 4807   3.173   3.625   1.104  0.6167  0.0240 -0.2830
 1558SOL    HW1 4808   3.236   3.594   1.039  1.0772  0.0065  0.1660
 1558SOL    HW2 4809   3.212   3.704   1.141  0.1427  0.2971 -0.3537
 1559SOL     OW 4810   0.489   2.012   2.849 -0.1498 -0.3858  0.0403
 1559SOL    HW1 4811   0.501   2.047   2.937 -1.9564  0.0765  0.1350
 1559SOL    HW2 4812   0.495   1.917   2.860  2.3914 -0.2935  0.1580
 1560SOL     OW 4813   3.574   1.575   2.367  0.9080 -0.0523  0.2703
 1560SOL    HW1 4814   3.488   1.617   2.376  0.8383 -0.4499  1.5651
 1560SOL    HW2 4815   3.616   1.622   2.294  1.0275  2.5878  1.9139
 1561SOL     OW 4816   1.477   0.507   0.647  0.3428  0.2310 -0.4462
 1561SOL    HW1 4817   1.528   0.431   0.620  0.4885 -0.2938  1.1653
 1561SOL    HW2 4818   1.507   0.526   0.736 -0.5426  1.4290 -0.3734
 1562SOL     OW 4819   3.073   1.788   1.324  0.8669 -0.2513 -0.5051
 1562SOL    HW1 4820   3.102   1.703   1.356  1.0619 -0.0002 -0.0119
 1562SOL    HW2 4821   2.989   1.803   1.367  1.2275  0.1800  0.0581
 1563SOL     OW 4822   3.624   0.250   0.402  0.7802 -0.5566 -0.0621
 1563SOL    HW1 4823   3.559   0.194   0.361 -1.1176  0.1272  1.8162
 1563SOL    HW2 4824   3.587   0.338   0.397  3.2053  0.4624 -1.9947
 1564SOL     OW 4825   2.948   3.413   1.276 -0.2831  0.5081  0.1510
 1564SOL    HW1 4826   2.950   3.347   1.206  1.0122  0.0606  0.5808
 1564SOL    HW2 4827   2.954   3.497   1.231  0.2564  0.2312 -0.3003
 1565SOL     OW 4828   1.322   0.938   3.575 -0.4708  0.1205 -0.1916
 1565SOL    HW1 4829   1.361   0.874   3.515  0.1166 -0.1174  0.4261
 1565SOL    HW2 4830   1.365   1.021   3.552 -0.9963  0.2382 -0.7761
 1566SOL     OW 4831   3.090   0.380   3.668 -0.2696 -0.1646 -0.0106
 1566SOL    HW1 4832   3.066   0.420   3.584  0.3752 -0.3203 -0.2719
 1566SOL    HW2 4833   3.008   0.378   3.718 -0.3999  1.1369 -0.1301
 1567SOL     OW 4834   1.641   1.553   2.393  0.7313 -0.3714  0.1939
 1567SOL    HW1 4835   1.563   1.530   2.343 -0.1726 -0.9861  1.7992
 1567SOL    HW2 4836   1.712   1.507   2.349  0.7790  2.2670 -2.9126
 1568SOL     OW 4837   2.886   1.149   2.979  0.1468  0.1304  0.8537
 1568SOL    HW1 4838   2.928   1.070   2.944  1.9415  0.6864  1.6365
 1568SOL    HW2 4839   2.881   1.209   2.905 -0.4064 -0.3892  0.4644
 1569SOL     OW 4840   0.389   1.412   2.046  0.0666 -1.0229  0.3736
 1569SOL    HW1 4841   0.331   1.488   2.039  2.1429  0.8122  1.7614
 1569SOL    HW2 4842   0.334   1.344   2.085 -1.2969  0.4837  1.2335
 1570SOL     OW 4843   1.819   1.015   1.124  0.2485 -0.1571 -0.4014
 1570SOL    HW1 4844   1.789   0.929   1.096  0.9876 -0.5378 -0.0363
 1570SOL    HW2 4845   1.913   1.005   1.135  0.3004  0.6280 -0.0943
 1571SOL     OW 4846   3.363   3.321   2.566  0.3657  0.7452 -0.1343
 1571SOL    HW1 4847   3.446   3.274   2.557 -0.3209 -0.8677  1.3628
 1571SOL    HW2 4848   3.296   3.258   2.541 -0.6672  0.4537  2.9894
 1572SOL     OW 4849   2.341   0.717   1.907  0.1443 -0.3005  0.3333
 1572SOL    HW1 4850   2.297   0.635   1.885 -0.1511 -0.3109  0.9245
 1572SOL    HW2 4851   2.408   0.692   1.971 -0.1695 -0.0438  0.7720
 1573SOL     OW 4852   2.122   3.657   1.466  0.5637  0.8559  0.4104
 1573SOL    HW1 4853   2.190   3.627   1.405  0.4632 -0.6585  1.0119
 1573SOL    HW2 4854   2.170   3.676   1.547  0.0396 -3.1427  1.8596
 1574SOL     OW 4855   0.980   1.271   0.592  0.2490  0.0421  0.7269
 1574SOL    HW1 4856   1.057   1.326   0.603 -1.5186  2.7775  0.3973
 1574SOL    HW2 4857   0.907   1.328   0.615 -1.7872 -1.9005 -0.5794
 1575SOL     OW 4858   3.339   2.172   0.101  0.3645 -1.0448 -0.2065
 1575SOL    HW1 4859   3.395   2.199   0.028 -0.4492 -0.7056 -0.7180
 1575SOL    HW2 4860   3.397   2.122   0.158  2.2136  2.3644  1.2372
 1576SOL     OW 4861   2.435   2.344   0.715  0.0487  0.7726  0.0832
 1576SOL    HW1 4862   2.488   2.327   0.792 -1.7910  0.9959  1.4604
 1576SOL    HW2 4863   2.445   2.265   0.661  0.9178  0.3735  0.8097
 1577SOL     OW 4864   1.373   2.244   3.242 -0.5758  0.4282 -0.1466
 1577SOL    HW1 4865   1.460   2.207   3.229 -0.4470 -0.4042  2.4433
 1577SOL    HW2 4866   1.313   2.170   3.230 -1.0231  1.0913 -2.3649
 1578SOL     OW 4867   0.897   0.275   3.061  0.4323 -0.2327 -0.3291
 1578SOL    HW1 4868   0.945   0.347   3.021  0.9558  0.3758  1.3043
 1578SOL    HW2 4869   0.896   0.296   3.154 -1.9649 -0.8561 -0.1562
 1579SOL     OW 4870   1.916   0.420   1.321  0.0946  0.5619  0.2784
 1579SOL    HW1 4871   2.005   0.442   1.348 -0.5305 -0.2238  3.4247
 1579SOL    HW2 4872   1.860   0.468   1.383 -1.5826 -0.7602 -0.1263
 1580SOL     OW 4873   2.758   0.119   1.784  0.7901 -0.8844 -0.4203
 1580SOL    HW1 4874   2.812   0.193   1.756  0.1698  0.0961  0.8507
 1580SOL    HW2 4875   2.812   0.042   1.767  1.8334 -0.0716 -0.9186
 1581SOL     OW 4876   1.201   0.624   0.659 -0.2659 -0.2991 -0.0740
 1581SOL    HW1 4877   1.211   0.704   0.711  0.5850  0.0154 -0.6886
 1581SOL    HW2 4878   1.284   0.578   0.670 -0.8503 -1.2477  0.4896
 1582SOL     OW 4879   2.635   2.844   0.100 -0.2513 -0.6395  0.2898
 1582SOL    HW1 4880   2.618   2.847   0.194 -1.4090  0.8957  0.0781
 1582SOL    HW2 4881   2.726   2.872   0.091  0.8133 -3.5527  1.0909
 1583SOL     OW 4882   3.282   1.942   2.367  0.7458  0.1335 -0.2181
 1583SOL    HW1 4883   3.376   1.926   2.376  0.6731  0.4394  1.2662
 1583SOL    HW2 4884   3.269   2.030   2.400 -0.2532 -0.4210  0.9350
 1584SOL     OW 4885   1.566   1.392   1.386 -0.2483 -0.4788 -0.4501
 1584SOL    HW1 4886   1.647   1.440   1.367  0.6394 -0.5740  2.5939
 1584SOL    HW2 4887   1.497   1.456   1.370  0.6912  0.7778  0.2722
 1585SOL     OW 4888   1.003   1.179   3.011  0.2420 -0.7078 -0.3591
 1585SOL    HW1 4889   0.949   1.191   2.933 -1.0744  0.3785  0.6681
 1585SOL    HW2 4890   1.087   1.145   2.978 -0.5127 -0.9257 -2.1490
 1586SOL     OW 4891   3.522   0.431   1.408  0.4129 -0.1882 -0.4331
 1586SOL    HW1 4892   3.593   0.370   1.426  0.7234  0.8189  2.0394
 1586SOL    HW2 4893   3.565   0.515   1.394 -0.0751 -0.2791 -2.9268
 1587SOL     OW 4894   1.509   2.907   3.230  0.0318  0.0558 -0.4995
 1587SOL    HW1 4895   1.509   2.861   3.314  0.1307 -0.1760 -0.6235
 1587SOL    HW2 4896   1.455   2.984   3.245 -0.2140 -0.1485 -0.3102
 1588SOL     OW 4897   1.244   1.895   2.395 -0.1013  0.1059  0.0535
 1588SOL    HW1 4898   1.333   1.894   2.361  0.1390  0.0217  0.6714
 1588SOL    HW2 4899   1.233   1.983   2.431  0.5167 -0.5551  1.9692
 1589SOL     OW 4900   2.337   2.098   2.517  0.2862  0.7624  0.2344
 1589SOL    HW1 4901   2.289   2.181   2.528  1.6580  1.7227 -0.6713
 1589SOL    HW2 4902   2.288   2.035   2.570 -0.5114  2.2653  1.3785
 1590SOL     OW 4903   3.263   0.293   0.149 -0.0356 -0.3915  0.0194
 1590SOL    HW1 4904   3.236   0.349   0.076  0.2604 -0.7418 -0.3678
 1590SOL    HW2 4905   3.181   0.259   0.184 -0.3596  1.7070  1.4532
 1591SOL     OW 4906   3.618   2.772   1.981 -0.0535 -0.4278  0.0859
 1591SOL    HW1 4907   3.709   2.788   1.958 -0.4303  3.2945  0.5489
 1591SOL    HW2 4908   3.617   2.769   2.077 -0.5406  0.9366  0.1437
 1592SOL     OW 4909   1.080   2.054   1.646 -0.6632  0.0620  0.2497
 1592SOL    HW1 4910   1.083   2.071   1.740  0.2822  0.9713  0.0812
 1592SOL    HW2 4911   1.134   1.976   1.634  2.3933  2.0225  0.1115
 1593SOL     OW 4912   1.988   2.819   1.957  0.1222  0.1148  0.3275
 1593SOL    HW1 4913   1.910   2.868   1.929  1.2429  2.5524  1.2422
 1593SOL    HW2 4914   2.061   2.877   1.939  1.5607 -1.2496  1.4712
 1594SOL     OW 4915   0.154   3.215   2.719  0.0536  0.0880  0.5142
 1594SOL    HW1 4916   0.122   3.144   2.775  0.9946 -0.8895 -0.1624
 1594SOL    HW2 4917   0.084   3.281   2.723 -0.8530 -0.8687  1.1370
 1595SOL     OW 4918   1.710   1.685   1.858 -0.4987  0.3834 -0.3956
 1595SOL    HW1 4919   1.728   1.778   1.847 -1.8297  0.6979  0.0437
 1595SOL    HW2 4920   1.781   1.654   1.914 -0.6192  1.3470  0.3085
 1596SOL     OW 4921   2.756   3.260   3.439  0.3265 -0.4617 -0.2625
 1596SOL    HW1 4922   2.772   3.216   3.523  1.4388  0.4640  0.0396
 1596SOL    HW2 4923   2.843   3.280   3.406 -0.0403 -1.9796 -2.3148
 1597SOL     OW 4924   0.796   3.434   0.470 -0.4743  1.0988  0.4334
 1597SOL    HW1 4925   0.873   3.478   0.506 -0.4997  2.1178 -0.6836
 1597SOL    HW2 4926   0.800   3.345   0.505 -0.2992  1.9000  2.5982
 1598SOL     OW 4927   2.322   1.842   3.604 -0.4586 -0.1823 -0.3733
 1598SOL    HW1 4928   2.356   1.764   3.648 -3.5637 -2.0338 -0.9511
 1598SOL    HW2 4929   2.336   1.824   3.511 -0.0437  0.5699 -0.4619
 1599SOL     OW 4930   2.167   1.446   1.376 -0.3608  0.3119  0.4579
 1599SOL    HW1 4931   2.167   1.529   1.328 -0.7203  0.6485  1.0337
 1599SOL    HW2 4932   2.196   1.382   1.311 -1.9287  0.5758 -0.5566
 1600SOL     OW 4933   0.781   3.341   3.228 -0.4725 -0.3325  0.5340
 1600SOL    HW1 4934   0.708   3.401   3.212 -0.0900 -0.4130 -1.9898
 1600SOL    HW2 4935   0.859   3.397   3.222 -0.2368 -0.5567  1.3870
 1601SOL     OW 4936   3.679   1.143   2.899 -0.7056  0.4404 -0.6470
 1601SOL    HW1 4937   3.597   1.191   2.903 -0.9630  0.2030 -2.2312
 1601SOL    HW2 4938   3.726   1.169   2.978 -1.8001  1.5013 -0.3093
 1602SOL     OW 4939   0.876   3.329   2.417  0.2202  0.4011  0.0966
 1602SOL    HW1 4940   0.807   3.387   2.450 -0.1409  0.7864 -1.2721
 1602SOL    HW2 4941   0.925   3.383   2.356 -0.4116 -0.8252 -1.5651
 1603SOL     OW 4942   2.012   0.661   2.226 -0.3934 -0.2870 -0.3841
 1603SOL    HW1 4943   2.086   0.601   2.226  0.4981  0.6636  2.2825
 1603SOL    HW2 4944   1.952   0.625   2.291 -1.9850 -0.6299 -1.9557
 1604SOL     OW 4945   3.271   1.867   0.643 -0.2523 -0.2187 -0.2992
 1604SOL    HW1 4946   3.258   1.856   0.737  1.1262 -0.4700 -0.1249
 1604SOL    HW2 4947   3.263   1.962   0.629  0.3146 -0.0903  0.2055
 1605SOL     OW 4948   1.264   1.847   0.302 -0.1910 -0.0312 -1.0057
 1605SOL    HW1 4949   1.179   1.866   0.342  0.0357 -0.7289 -0.1543
 1605SOL    HW2 4950   1.307   1.932   0.295 -1.3128  0.4704 -2.3317
 1606SOL     OW 4951   0.360   3.212   1.541 -0.2259  0.2029  0.1220
 1606SOL    HW1 4952   0.369   3.117   1.553  0.1717  0.2964  0.6079
 1606SOL    HW2 4953   0.339   3.245   1.628 -2.1884  0.3766 -0.3529
 1607SOL     OW 4954   3.146   3.020   0.282 -1.2974  0.2690 -0.2989
 1607SOL    HW1 4955   3.242   3.023   0.290 -1.1622  0.0265 -1.5974
 1607SOL    HW2 4956   3.117   2.972   0.359 -0.2424 -1.0908 -0.7017
 1608SOL     OW 4957   2.601   1.393   2.695 -0.0905  0.3253  0.2860
 1608SOL    HW1 4958   2.507   1.378   2.695 -0.2229  0.8430 -1.9085
 1608SOL    HW2 4959   2.613   1.469   2.752 -1.1922  1.1153 -0.4941
 1609SOL     OW 4960   1.231   3.272   1.200 -0.9031  0.1329  0.1860
 1609SOL    HW1 4961   1.151   3.288   1.150 -0.9869 -2.6354 -0.7069
 1609SOL    HW2 4962   1.292   3.235   1.137  2.3685  4.8887  0.0468
 1610SOL     OW 4963   1.271   0.080   3.011  0.1733  0.3884  0.1523
 1610SOL    HW1 4964   1.353   0.045   2.977  0.9459  1.2223  1.0959
 1610SOL    HW2 4965   1.203   0.034   2.962  1.2032 -0.0777 -0.8843
 1611SOL     OW 4966   3.717   2.375   0.614 -0.0515  0.4258  0.3489
 1611SOL    HW1 4967   3.756   2.342   0.534 -0.3505  1.8616 -0.4188
 1611SOL    HW2 4968   3.629   2.404   0.588  0.5622  2.8034  0.6977
 1612SOL     OW 4969   1.031   0.180   2.729  0.0106 -0.3731 -0.5005
 1612SOL    HW1 4970   0.987   0.258   2.695 -0.4566 -1.3274 -2.2016
 1612SOL    HW2 4971   0.960   0.128   2.768  0.4661  0.4679  1.5907
 1613SOL     OW 4972   3.441   1.082   2.155 -0.5873  0.0118  0.0070
 1613SOL    HW1 4973   3.364   1.058   2.103 -0.7476  2.1957 -0.8729
 1613SOL    HW2 4974   3.426   1.174   2.179  1.3575  0.2414  0.5102
 1614SOL     OW 4975   1.447   0.347   3.420 -0.3258  0.1490  0.6832
 1614SOL    HW1 4976   1.536   0.343   3.384 -0.9930 -0.7030 -0.9197
 1614SOL    HW2 4977   1.390   0.327   3.347 -1.8457  0.3567  1.7715
 1615SOL     OW 4978   0.306   1.518   2.688  0.0192  0.7589  0.0433
 1615SOL    HW1 4979   0.331   1.432   2.720  0.8435  0.4430 -1.4146
 1615SOL    HW2 4980   0.260   1.502   2.606 -0.6200  1.6604  0.2005
 1616SOL     OW 4981   1.801   2.219   2.944  0.4879  0.7066 -0.0706
 1616SOL    HW1 4982   1.855   2.187   2.872  0.3315  0.7532 -0.2087
 1616SOL    HW2 4983   1.825   2.311   2.953 -0.1021  0.9242 -0.6237
 1617SOL     OW 4984   2.922   0.275   2.308  0.0151 -0.4531  0.0998
 1617SOL    HW1 4985   2.902   0.247   2.397  1.0998  0.8100  0.7748
 1617SOL    HW2 4986   2.885   0.206   2.252  0.3251 -1.8631  1.5651
 1618SOL     OW 4987   2.428   1.708   0.656  0.8583  0.6496 -0.1249
 1618SOL    HW1 4988   2.518   1.733   0.676  0.7757  1.0837 -0.2862
 1618SOL    HW2 4989   2.432   1.613   0.642  1.3628  0.7257 -0.5290
 1619SOL     OW 4990   0.990   1.078   0.818 -0.0029  0.1653  0.2908
 1619SOL    HW1 4991   0.906   1.048   0.782  0.0931 -2.2601  1.8273
 1619SOL    HW2 4992   1.028   1.133   0.749 -2.5675  0.8770 -0.6723
 1620SOL     OW 4993   1.973   2.486   1.377  0.3432 -0.6225 -0.0165
 1620SOL    HW1 4994   1.882   2.496   1.350  0.4320  1.0292  0.1932
 1620SOL    HW2 4995   2.023   2.495   1.296  0.3782 -0.1423  0.0542
 1621SOL     OW 4996   0.175   2.365   0.846  0.3587 -0.0798  0.7343
 1621SOL    HW1 4997   0.100   2.383   0.789  0.6126 -0.2814  0.3322
 1621SOL    HW2 4998   0.217   2.451   0.858  0.0510  0.0394  0.9862
 1622SOL     OW 4999   2.813   3.208  -0.004 -0.9095 -0.1674 -0.2387
 1622SOL    HW1 5000   2.842   3.134   0.049 -1.8574 -0.2247  0.2171
 1622SOL    HW2 5001   2.885   3.271   0.003 -0.3174 -0.8243 -0.2122
 1623SOL     OW 5002   2.770   2.116   1.369  0.5246 -0.3837 -0.8388
 1623SOL    HW1 5003   2.757   2.166   1.449 -1.2332  0.2340 -1.4852
 1623SOL    HW2 5004   2.696   2.137   1.314  0.2927 -2.8207 -1.6043
 1624SOL     OW 5005   3.556   1.181   1.633 -0.5894  0.3879 -1.2959
 1624SOL    HW1 5006   3.635   1.205   1.682 -1.9165  1.3172  0.5036
 1624SOL    HW2 5007   3.585   1.179   1.542  1.9002 -1.0441 -0.5747
 1625SOL     OW 5008   0.043   1.288   2.617 -0.5341  0.9385  0.3480
 1625SOL    HW1 5009   0.061   1.366   2.669 -0.6072  0.4281  1.1609
 1625SOL    HW2 5010  -0.025   1.242   2.667  0.0618 -0.0292  0.2785
 1626SOL     OW 5011   1.835   3.134   0.297 -0.3015  0.1116  0.5063
 1626SOL    HW1 5012   1.756   3.183   0.320  0.3519  1.2179  0.4498
 1626SOL    HW2 5013   1.868   3.176   0.218 -0.2329 -1.0191 -0.0840
 1627SOL     OW 5014   0.523   0.896   0.290 -0.7155 -0.2630 -0.2924
 1627SOL    HW1 5015   0.485   0.814   0.260 -0.6920  0.5247 -2.6647
 1627SOL    HW2 5016   0.453   0.939   0.338 -0.9658 -1.2894  0.3064
 1628SOL     OW 5017   2.272   1.460   2.125  0.0691  0.4976 -0.3564
 1628SOL    HW1 5018   2.313   1.531   2.075  0.1435 -1.0105 -2.6292
 1628SOL    HW2 5019   2.338   1.390   2.126 -0.5802 -0.1225  0.4151
 1629SOL     OW 5020   2.816   0.145   2.537  0.4051  0.5042  0.1651
 1629SOL    HW1 5021   2.722   0.163   2.542  0.4594  0.6016  1.1147
 1629SOL    HW2 5022   2.834   0.092   2.614  1.4133  1.8931  0.9342
 1630SOL     OW 5023   2.619   3.579   3.375 -0.2029  0.3275  0.2675
 1630SOL    HW1 5024   2.646   3.614   3.461 -0.1008 -2.6182  1.5545
 1630SOL    HW2 5025   2.702   3.557   3.332 -0.2703  1.4833 -0.5017
 1631SOL     OW 5026   2.841   2.749   1.193 -0.1431 -0.3310  0.7248
 1631SOL    HW1 5027   2.878   2.774   1.108 -1.3404 -0.2032  0.2107
 1631SOL    HW2 5028   2.838   2.830   1.243 -0.3377 -0.2105  0.5207
 1632SOL     OW 5029   0.403   2.121   2.614 -0.3867  0.0858  0.5521
 1632SOL    HW1 5030   0.393   2.211   2.644  2.3420  0.6528 -0.0441
 1632SOL    HW2 5031   0.400   2.068   2.694  1.1170  1.0277  1.2723
 1633SOL     OW 5032   0.104   2.334   2.501  0.6220  0.1496  0.5597
 1633SOL    HW1 5033   0.023   2.305   2.460  1.2756 -0.1745 -0.5427
 1633SOL    HW2 5034   0.118   2.272   2.573  0.6554 -0.7143 -0.1712
 1634SOL     OW 5035   2.681   1.317   1.932  0.8410  0.2337 -0.7168
 1634SOL    HW1 5036   2.722   1.362   2.006  0.2778 -0.2953 -0.0712
 1634SOL    HW2 5037   2.620   1.381   1.895 -1.5406 -0.5855  1.4954
 1635SOL     OW 5038   2.786   0.396   2.710 -0.7008  0.1141 -1.0003
 1635SOL    HW1 5039   2.846   0.350   2.652  1.0270 -0.5357  1.1728
 1635SOL    HW2 5040   2.817   0.487   2.711 -0.3446 -0.0114 -0.6178
 1636SOL     OW 5041   1.752   1.646   3.518 -0.1092  0.5834 -0.6599
 1636SOL    HW1 5042   1.772   1.587   3.445  0.6518  0.1166 -0.0833
 1636SOL    HW2 5043   1.837   1.682   3.543 -0.2378  0.0412  0.5899
 1637SOL     OW 5044   3.441   1.432   2.553  0.1158  0.0665 -0.5417
 1637SOL    HW1 5045   3.368   1.477   2.511 -0.0226 -1.2458 -1.7442
 1637SOL    HW2 5046   3.515   1.447   2.495  0.5331  0.3321  0.0419
 1638SOL     OW 5047   0.802   1.950   2.843 -0.2156 -0.3977  0.0647
 1638SOL    HW1 5048   0.881   1.946   2.789 -1.0560 -0.7759 -1.1857
 1638SOL    HW2 5049   0.760   2.032   2.817 -1.1017 -1.0354 -0.5694
 1639SOL     OW 5050   1.780   0.090   0.200 -0.2487  0.4310  0.3908
 1639SOL    HW1 5051   1.828   0.170   0.221 -0.5756  0.8102 -0.2938
 1639SOL    HW2 5052   1.754   0.100   0.108 -1.7252  0.2912  0.7569
 1640SOL     OW 5053   2.498   2.074   0.685 -0.7279  0.1412 -0.3133
 1640SOL    HW1 5054   2.465   2.058   0.597 -1.5707 -1.2491  0.2164
 1640SOL    HW2 5055   2.584   2.030   0.686 -1.6020 -1.6601  0.1311
 1641SOL     OW 5056   3.399   3.355   1.200 -0.6106  0.3287 -0.5137
 1641SOL    HW1 5057   3.414   3.261   1.192 -0.0322  0.4085 -0.3876
 1641SOL    HW2 5058   3.383   3.385   1.111 -0.0040  0.2422 -0.6557
 1642SOL     OW 5059   2.619   2.953   0.646  0.0797  0.0626 -0.8233
 1642SOL    HW1 5060   2.621   3.045   0.672 -0.8323 -0.2661  0.5171
 1642SOL    HW2 5061   2.526   2.929   0.648  0.3715 -1.1124 -0.2913
 1643SOL     OW 5062   2.373   3.167   0.189  0.2417 -0.9378 -0.1971
 1643SOL    HW1 5063   2.302   3.219   0.229  1.1716  0.0504  0.2170
 1643SOL    HW2 5064   2.421   3.132   0.264  0.7238 -0.8602 -0.4699
 1644SOL     OW 5065   2.366   2.003   3.216  0.8096  0.3749 -0.0827
 1644SOL    HW1 5066   2.414   2.060   3.156  2.0390  0.1964  0.7017
 1644SOL    HW2 5067   2.355   2.055   3.296  0.0958  0.2462 -0.0911
 1645SOL     OW 5068   3.222   3.524   3.541 -0.3025  0.0591 -0.4886
 1645SOL    HW1 5069   3.276   3.451   3.571 -0.5368 -0.5035 -1.4098
 1645SOL    HW2 5070   3.244   3.533   3.448 -1.1851  0.3595 -0.6777
 1646SOL     OW 5071   0.418   2.339   1.413  0.3943  0.1229  0.1555
 1646SOL    HW1 5072   0.412   2.377   1.325 -0.5964 -2.7113 -1.1230
 1646SOL    HW2 5073   0.511   2.347   1.436  0.7914  0.4227 -1.4070
 1647SOL     OW 5074   2.505   3.270   1.862  0.4819 -0.8182  0.2998
 1647SOL    HW1 5075   2.424   3.312   1.834  1.8934  1.3145 -0.8219
 1647SOL    HW2 5076   2.547   3.241   1.780  2.1951  0.7926  0.5247
 1648SOL     OW 5077   0.883   0.180   1.380 -0.3699  0.1308 -0.2494
 1648SOL    HW1 5078   0.791   0.204   1.383 -0.7682 -1.2217 -0.6932
 1648SOL    HW2 5079   0.922   0.240   1.316 -1.0780  0.3002 -0.5275
 1649SOL     OW 5080   2.265   3.700   1.705  0.3489 -0.5512 -0.2862
 1649SOL    HW1 5081   2.233   3.688   1.794 -2.4851  0.0639 -1.1213
 1649SOL    HW2 5082   2.358   3.719   1.716  0.4440 -2.0360  2.3924
 1650SOL     OW 5083   2.185   1.760   1.338  0.6955  0.1796 -0.2586
 1650SOL    HW1 5084   2.225   1.764   1.425 -1.4651  0.8882  0.7729
 1650SOL    HW2 5085   2.244   1.810   1.282  2.3074 -0.5647  0.6850
 1651SOL     OW 5086   3.451   1.297   2.964  0.2205 -0.3293 -0.7243
 1651SOL    HW1 5087   3.438   1.389   2.986  0.8947 -0.0641 -1.3967
 1651SOL    HW2 5088   3.377   1.252   3.004 -0.4912  0.5933 -0.9770
 1652SOL     OW 5089   1.570   3.668   3.414  0.1680  0.2993  0.0811
 1652SOL    HW1 5090   1.480   3.696   3.433 -0.6682 -0.7315 -2.1035
 1652SOL    HW2 5091   1.560   3.590   3.359  2.3396  1.4345 -2.1058
 1653SOL     OW 5092   0.189   2.217   2.810  0.0000 -0.4527 -0.2818
 1653SOL    HW1 5093   0.262   2.256   2.762  0.8537 -0.9699  0.5697
 1653SOL    HW2 5094   0.173   2.277   2.883 -0.4877 -0.3023 -0.5045
 1654SOL     OW 5095   1.752   2.963   3.121  0.3669 -0.0937 -0.3971
 1654SOL    HW1 5096   1.720   3.036   3.068 -1.4141 -0.5027  0.0611
 1654SOL    HW2 5097   1.674   2.931   3.167  1.0652 -2.4310 -0.7623
 1655SOL     OW 5098   1.786   3.563   0.371  0.5140 -0.2186 -0.5920
 1655SOL    HW1 5099   1.702   3.555   0.416  0.2719 -1.3080 -1.1996
 1655SOL    HW2 5100   1.771   3.629   0.303 -0.1078 -1.0035 -1.2312
 1656SOL     OW 5101   3.718   2.950   3.136  0.6773 -0.8032  0.3392
 1656SOL    HW1 5102   3.640   2.895   3.129  0.0084  0.0426  0.9886
 1656SOL    HW2 5103   3.744   2.943   3.228  1.0716 -0.6700  0.2398
 1657SOL     OW 5104   3.462   3.476   2.110 -0.3069 -0.1239  0.4212
 1657SOL    HW1 5105   3.517   3.463   2.032  1.2594 -1.1014  1.6351
 1657SOL    HW2 5106   3.437   3.568   2.107  1.6458  0.4270 -0.0314
 1658SOL     OW 5107   1.660   0.790   2.026  0.2785  0.0488  0.5979
 1658SOL    HW1 5108   1.734   0.850   2.035 -0.6070  1.0171  1.8395
 1658SOL    HW2 5109   1.698   0.703   2.032  1.2894  0.5399  1.6808
 1659SOL     OW 5110   1.716   1.007   3.454  0.6312 -0.3322 -0.3998
 1659SOL    HW1 5111   1.758   0.979   3.535  1.4220 -1.9993 -1.3057
 1659SOL    HW2 5112   1.624   0.982   3.464  0.1621  1.7280  0.9057
 1660SOL     OW 5113   0.080   1.914   1.970 -0.3519 -0.4365  0.3830
 1660SOL    HW1 5114   0.164   1.871   1.952  0.5634  1.3177  0.2272
 1660SOL    HW2 5115   0.080   1.991   1.914 -2.3632 -0.7045 -0.0452
 1661SOL     OW 5116   0.365   1.988   2.294 -0.6498 -0.1982 -0.1892
 1661SOL    HW1 5117   0.349   1.954   2.382  0.8465 -0.9248 -0.1700
 1661SOL    HW2 5118   0.406   1.915   2.248  0.2036  0.7504 -0.9552
 1662SOL     OW 5119   1.287   2.543   0.571  0.4519 -0.4186 -0.4865
 1662SOL    HW1 5120   1.324   2.458   0.594  0.5271 -0.5943 -1.2314
 1662SOL    HW2 5121   1.315   2.558   0.481 -0.1560  0.0702 -0.6047
 1663SOL     OW 5122   1.794   2.025   2.249  0.0521  0.0048  0.4130
 1663SOL    HW1 5123   1.763   1.942   2.285  1.2023 -0.8687 -0.5308
 1663SOL    HW2 5124   1.884   2.034   2.283 -0.0075  0.7857  0.3786
 1664SOL     OW 5125   2.244   1.909   2.707 -0.2518 -0.3536  0.3105
 1664SOL    HW1 5126   2.204   1.982   2.754  0.1258  0.3316 -0.4128
 1664SOL    HW2 5127   2.230   1.834   2.764 -0.8235  0.2421  0.9776
 1665SOL     OW 5128   1.256   3.030   3.710 -0.7188 -0.1525 -0.7498
 1665SOL    HW1 5129   1.310   2.986   3.644 -0.8000  1.1857 -1.7563
 1665SOL    HW2 5130   1.198   3.087   3.659 -1.6033  0.0408  0.4336
 1666SOL     OW 5131   3.048   1.020   2.323 -0.3166 -0.2839  0.4678
 1666SOL    HW1 5132   3.129   0.982   2.286  1.1316  1.1957  1.9706
 1666SOL    HW2 5133   3.061   1.016   2.418 -1.8969  0.2851  0.7319
 1667SOL     OW 5134   0.054   2.073   0.477 -0.3345  0.3498 -0.0339
 1667SOL    HW1 5135   0.110   2.079   0.554 -1.0406 -0.2976  0.5377
 1667SOL    HW2 5136   0.114   2.087   0.403  1.0169 -2.4955  0.4035
 1668SOL     OW 5137   1.708   3.662   1.112  0.6183 -0.1901  0.7617
 1668SOL    HW1 5138   1.630   3.695   1.157  0.9380  3.6589 -1.1179
 1668SOL    HW2 5139   1.781   3.692   1.166  0.8856 -0.4498  0.5475
 1669SOL     OW 5140   0.556   1.597   2.432  0.2502 -0.0867 -0.7181
 1669SOL    HW1 5141   0.530   1.505   2.435  2.1640 -0.6920  2.9818
 1669SOL    HW2 5142   0.524   1.633   2.515  0.1334  2.4872 -1.7769
 1670SOL     OW 5143   2.870   2.605   1.691 -0.2765 -0.3294  1.0435
 1670SOL    HW1 5144   2.834   2.645   1.612  2.1327 -2.1140 -1.1489
 1670SOL    HW2 5145   2.954   2.569   1.663  0.8861 -0.7214  4.5688
 1671SOL     OW 5146   1.715   3.105   2.882 -0.2371  0.2731 -0.0495
 1671SOL    HW1 5147   1.777   3.177   2.894  2.3887 -1.8255 -0.0441
 1671SOL    HW2 5148   1.639   3.145   2.839  1.9037  2.6673 -1.8831
 1672SOL     OW 5149   2.721   2.673   2.059 -0.0008  0.4728  0.1409
 1672SOL    HW1 5150   2.814   2.669   2.081  0.2258  2.3662 -0.2610
 1672SOL    HW2 5151   2.689   2.751   2.104 -1.2135  0.2911 -0.3508
 1673SOL     OW 5152   2.868   0.650   2.577  0.5023 -0.3485  0.1243
 1673SOL    HW1 5153   2.877   0.711   2.504  0.8204 -0.1276  0.3401
 1673SOL    HW2 5154   2.956   0.648   2.617  0.0276  0.5117  1.2652
 1674SOL     OW 5155   0.594   0.092   1.709 -0.5409  0.0397  1.0933
 1674SOL    HW1 5156   0.677   0.083   1.662 -1.1500  0.4076 -0.0887
 1674SOL    HW2 5157   0.566   0.003   1.726  0.1851 -0.0880  1.6696
 1675SOL     OW 5158   2.997   1.137   1.343 -0.5462 -0.3175  0.3443
 1675SOL    HW1 5159   3.074   1.154   1.396 -0.7411 -0.9197  0.8224
 1675SOL    HW2 5160   3.015   1.182   1.260  0.5720 -0.9570  0.2333
 1676SOL     OW 5161   0.206   3.491   1.961 -0.2761  0.4016 -0.1215
 1676SOL    HW1 5162   0.153   3.446   2.027  0.5653 -1.3226 -0.5538
 1676SOL    HW2 5163   0.262   3.550   2.012 -0.8958  0.4288  0.5412
 1677SOL     OW 5164   3.410   2.783   1.279 -0.0066 -0.2451 -0.2275
 1677SOL    HW1 5165   3.388   2.693   1.254  0.7834 -1.2161  2.2545
 1677SOL    HW2 5166   3.505   2.782   1.292 -0.0165  0.8901  0.0624
 1678SOL     OW 5167   2.488   1.594   1.299  0.4245  0.4520 -0.3674
 1678SOL    HW1 5168   2.470   1.505   1.332 -0.8509  0.6475 -0.4551
 1678SOL    HW2 5169   2.472   1.651   1.374 -0.7880  0.7524 -0.8179
 1679SOL     OW 5170   1.206   3.497   0.420 -0.1905  0.3937  0.2557
 1679SOL    HW1 5171   1.255   3.494   0.338 -1.4244  0.6879 -0.5202
 1679SOL    HW2 5172   1.158   3.414   0.423 -2.0514  1.3847 -0.5734
 1680SOL     OW 5173   0.288   0.769   1.303 -0.2381 -0.0748  0.3271
 1680SOL    HW1 5174   0.306   0.735   1.391 -2.7965  0.4728  1.1585
 1680SOL    HW2 5175   0.266   0.861   1.318 -1.2896 -0.1218 -0.7913
 1681SOL     OW 5176   1.472   2.377   3.592 -0.9432 -0.7746 -0.0228
 1681SOL    HW1 5177   1.424   2.442   3.541  0.4863 -0.0105 -0.4533
 1681SOL    HW2 5178   1.534   2.429   3.644 -1.3800 -1.6375  1.4185
 1682SOL     OW 5179   3.650   3.192   3.363  0.1086  0.0314  0.8103
 1682SOL    HW1 5180   3.711   3.265   3.371  0.2733 -0.2265  2.1683
 1682SOL    HW2 5181   3.617   3.198   3.273 -0.2192  2.0332  1.0192
 1683SOL     OW 5182   2.958   1.807   0.715  0.0026 -0.4012 -0.6960
 1683SOL    HW1 5183   2.979   1.852   0.634 -1.3966  0.4827 -0.5878
 1683SOL    HW2 5184   2.863   1.806   0.719  0.0340 -0.3991  0.9478
 1684SOL     OW 5185   2.020   1.789   0.910 -0.0779  0.4645  0.4167
 1684SOL    HW1 5186   2.016   1.885   0.913 -1.0954  0.5228 -1.4851
 1684SOL    HW2 5187   1.933   1.762   0.879  0.1824 -1.0910  0.9490
 1685SOL     OW 5188   3.073   0.887   0.078  0.4175 -0.0575 -0.6508
 1685SOL    HW1 5189   3.015   0.828   0.029 -2.7818  1.1583  1.3237
 1685SOL    HW2 5190   3.088   0.960   0.019 -1.5447  0.3632 -0.7121
 1686SOL     OW 5191   1.950   2.048   1.059 -0.0895  0.3144 -0.1352
 1686SOL    HW1 5192   1.939   2.109   0.986  0.6507 -1.6336 -1.9789
 1686SOL    HW2 5193   2.041   2.058   1.086  0.0053  0.1085 -0.3744
 1687SOL     OW 5194   0.726   3.061   3.241 -0.3723  0.6462 -0.0081
 1687SOL    HW1 5195   0.631   3.060   3.230 -0.8785 -0.4530  3.2803
 1687SOL    HW2 5196   0.750   3.154   3.236 -1.5529  0.9184 -1.0435
 1688SOL     OW 5197   2.461   1.967   0.224 -0.0660 -0.1490  0.4772
 1688SOL    HW1 5198   2.415   1.884   0.212 -0.1713 -0.1991  1.1578
 1688SOL    HW2 5199   2.532   1.946   0.285  2.5378 -0.6749 -2.5038
 1689SOL     OW 5200   1.108   1.250   3.611 -0.5293 -0.0507 -0.1963
 1689SOL    HW1 5201   1.160   1.271   3.533  0.8534 -1.2326  0.3505
 1689SOL    HW2 5202   1.061   1.170   3.587  2.1588 -2.1734  1.0356
 1690SOL     OW 5203   2.301   1.309   1.188 -0.4652  0.3744 -0.6257
 1690SOL    HW1 5204   2.370   1.243   1.188 -2.8221 -2.3960  1.2844
 1690SOL    HW2 5205   2.244   1.283   1.116 -1.3831  0.2887  0.1052
 1691SOL     OW 5206   1.171   3.213   1.926 -0.2650 -0.1793 -0.3131
 1691SOL    HW1 5207   1.084   3.202   1.965  1.4426 -1.0038  3.6548
 1691SOL    HW2 5208   1.178   3.307   1.908 -1.1322  0.2774  1.5594
 1692SOL     OW 5209   2.444   1.549   2.471  0.7384  0.5152 -0.1020
 1692SOL    HW1 5210   2.405   1.495   2.540  0.5573  0.9992  0.1807
 1692SOL    HW2 5211   2.480   1.625   2.518  2.5129 -0.1731 -0.2747
 1693SOL     OW 5212   3.303   3.042   1.267 -0.6045  0.2111 -0.0437
 1693SOL    HW1 5213   3.296   2.947   1.251 -2.6349 -0.0863  2.1002
 1693SOL    HW2 5214   3.365   3.049   1.339 -1.7048  0.3326  0.9146
 1694SOL     OW 5215   3.062   2.728   2.357 -0.3726  0.0933  0.1598
 1694SOL    HW1 5216   3.022   2.651   2.316 -2.3246  0.8037  0.6276
 1694SOL    HW2 5217   3.100   2.695   2.438  1.2061 -0.8349 -0.8962
 1695SOL     OW 5218   1.842   2.482   2.925 -0.1194  0.5170 -0.4571
 1695SOL    HW1 5219   1.763   2.527   2.898  2.0367  4.5649 -0.7573
 1695SOL    HW2 5220   1.910   2.550   2.926  3.2263 -2.5038  0.5203
 1696SOL     OW 5221   1.324   2.458   1.061  0.4298 -0.1105 -0.3751
 1696SOL    HW1 5222   1.305   2.438   0.970  0.5295  0.7865 -0.5987
 1696SOL    HW2 5223   1.245   2.433   1.109 -0.4393  1.3893 -0.9846
 1697SOL     OW 5224   3.450   0.845   2.699 -0.7164 -0.2831  0.3056
 1697SOL    HW1 5225   3.388   0.861   2.770 -1.5725 -1.1735 -0.2123
 1697SOL    HW2 5226   3.415   0.896   2.626 -0.5431 -0.3581  0.1703
 1698SOL     OW 5227   2.464   1.268   2.148 -0.0302 -0.3686 -0.4418
 1698SOL    HW1 5228   2.491   1.178   2.168 -0.3715 -1.0830 -2.8452
 1698SOL    HW2 5229   2.513   1.290   2.069 -1.5675  0.7508 -1.1354
 1699SOL     OW 5230   1.004   2.072   3.225 -0.3937 -0.1298  0.4543
 1699SOL    HW1 5231   0.965   2.149   3.182  0.6270  0.6078  0.8236
 1699SOL    HW2 5232   1.090   2.063   3.185 -1.4103 -2.6733 -1.4628
 1700SOL     OW 5233   3.111   3.557   2.109  0.1722  0.4237  0.0185
 1700SOL    HW1 5234   3.147   3.588   2.026  0.3182  1.9626  0.6370
 1700SOL    HW2 5235   3.037   3.615   2.126 -0.1245 -0.1578  0.7598
 1701SOL     OW 5236   3.631   2.416   2.801 -0.2595 -0.0720  0.2844
 1701SOL    HW1 5237   3.669   2.447   2.883  2.9337  0.7373 -1.3246
 1701SOL    HW2 5238   3.611   2.324   2.816 -2.9513  0.7848  2.8957
 1702SOL     OW 5239   2.582   3.359   0.034  0.1635  0.0728  0.7488
 1702SOL    HW1 5240   2.645   3.287   0.039 -0.8487 -0.8342  0.9405
 1702SOL    HW2 5241   2.563   3.368  -0.059  1.4631  1.1843  0.5538
 1703SOL     OW 5242   3.245   2.781   1.874 -0.4451 -0.3847 -0.6807
 1703SOL    HW1 5243   3.323   2.836   1.872 -1.4530  1.1887  0.9353
 1703SOL    HW2 5244   3.176   2.835   1.838 -1.8625  0.2287  2.6093
 1704SOL     OW 5245   2.582   2.549   2.334  0.1785 -0.2037  0.5232
 1704SOL    HW1 5246   2.504   2.501   2.363  0.5932 -0.8921  0.5207
 1704SOL    HW2 5247   2.549   2.634   2.307 -0.7014 -0.7852 -0.3073
 1705SOL     OW 5248   3.213   0.984   2.001  0.3121 -0.5770  0.2023
 1705SOL    HW1 5249   3.211   0.942   1.915  0.0280 -2.3138  1.0147
 1705SOL    HW2 5250   3.123   1.011   2.017  0.5476  0.6832 -0.4453
 1706SOL     OW 5251   3.124   0.489   0.695 -1.0668 -0.1015  0.2022
 1706SOL    HW1 5252   3.110   0.558   0.760  2.1022  2.1659 -1.2333
 1706SOL    HW2 5253   3.199   0.440   0.727  1.7581  2.1870 -2.2757
 1707SOL     OW 5254   3.520   0.209   0.854  0.0945 -0.3160  0.4549
 1707SOL    HW1 5255   3.580   0.237   0.924  1.1037 -0.8139 -0.1957
 1707SOL    HW2 5256   3.524   0.279   0.789 -2.7445  1.3977  1.9265
 1708SOL     OW 5257   1.037   3.014   0.737 -0.4907 -0.5687 -0.0692
 1708SOL    HW1 5258   1.008   2.973   0.819  2.2968 -2.7488  0.0084
 1708SOL    HW2 5259   1.089   2.946   0.694 -0.3815  1.1110 -2.8372
 1709SOL     OW 5260   3.312   1.640   1.659  0.4277  1.0851 -0.2698
 1709SOL    HW1 5261   3.366   1.701   1.709  0.7115  0.9916 -0.4628
 1709SOL    HW2 5262   3.231   1.688   1.641  0.0803  0.9286  0.7819
 1710SOL     OW 5263  -0.030   2.782   1.301  0.0420  0.2370  0.4483
 1710SOL    HW1 5264   0.037   2.850   1.314 -1.0033  0.9520  2.8459
 1710SOL    HW2 5265   0.013   2.701   1.330  0.8668  0.0790 -1.1352
 1711SOL     OW 5266   2.062   0.607   0.692  0.4955  0.7449  0.5793
 1711SOL    HW1 5267   1.984   0.634   0.642 -0.8536 -1.8666  1.0702
 1711SOL    HW2 5268   2.073   0.514   0.670  1.3666  0.1421  3.1766
 1712SOL     OW 5269   2.684   1.571   0.412 -0.0349  0.0337 -0.4644
 1712SOL    HW1 5270   2.600   1.567   0.367 -0.7393  0.5923  0.7511
 1712SOL    HW2 5271   2.673   1.514   0.488  0.3609  0.8556  0.2236
 1713SOL     OW 5272   1.499   1.711   1.608  0.3336 -0.1177 -0.1710
 1713SOL    HW1 5273   1.551   1.766   1.666 -0.3611 -0.3186  0.6646
 1713SOL    HW2 5274   1.546   1.712   1.524  1.2520  0.3211  0.3421
 1714SOL     OW 5275   0.125   3.439   2.222 -0.6122  1.1250  0.3969
 1714SOL    HW1 5276   0.199   3.380   2.206 -0.7717  1.3500 -1.2937
 1714SOL    HW2 5277   0.138   3.470   2.312 -0.8053 -1.8763  1.5765
 1715SOL     OW 5278   0.551   2.491   2.250  0.1552  0.1271  0.2256
 1715SOL    HW1 5279   0.568   2.565   2.309  0.0237 -0.2824  0.7856
 1715SOL    HW2 5280   0.527   2.419   2.309 -2.2750  0.3142 -0.4158
 1716SOL     OW 5281   1.976   2.545   3.477  0.1181  0.4243 -0.1570
 1716SOL    HW1 5282   2.011   2.459   3.452 -1.2877 -0.1881 -0.1431
 1716SOL    HW2 5283   1.967   2.592   3.394  1.5286  0.8440 -0.1010
 1717SOL     OW 5284   2.958   1.431   0.411  0.2302  0.1406  0.3833
 1717SOL    HW1 5285   2.912   1.446   0.329  1.0757  2.3950  0.2529
 1717SOL    HW2 5286   2.899   1.374   0.462 -1.5773  0.9790 -0.6849
 1718SOL     OW 5287   1.485   3.646   1.776  0.0026 -0.3757  0.0582
 1718SOL    HW1 5288   1.523   3.704   1.842  0.6442  0.3344 -0.9041
 1718SOL    HW2 5289   1.390   3.661   1.782  0.0053 -0.6954  1.1351
 1719SOL     OW 5290   0.184   0.734   2.793  0.5373  0.6856  0.0717
 1719SOL    HW1 5291   0.128   0.662   2.823  1.1201  1.0271  2.1625
 1719SOL    HW2 5292   0.128   0.811   2.800 -0.8137  0.3495 -4.2231
 1720SOL     OW 5293   2.173   2.282   2.047  0.3740  0.0904  0.2572
 1720SOL    HW1 5294   2.225   2.340   2.103  1.3718  0.3798 -0.9121
 1720SOL    HW2 5295   2.196   2.194   2.076 -0.1448  0.2443  1.1738
 1721SOL     OW 5296   3.379   2.734   3.517 -0.3806  0.3912  0.3603
 1721SOL    HW1 5297   3.380   2.824   3.550 -0.7402  0.7306 -0.5208
 1721SOL    HW2 5298   3.297   2.727   3.468  1.2105  0.7192 -2.5597
 1722SOL     OW 5299   2.311   2.416   2.266 -0.0118 -0.3503 -0.5487
 1722SOL    HW1 5300   2.314   2.330   2.307 -0.5322 -0.8637 -1.5434
 1722SOL    HW2 5301   2.229   2.455   2.297 -0.2735 -0.6318 -0.8686
 1723SOL     OW 5302   2.197   0.852   0.966  0.7912  0.3023  0.6857
 1723SOL    HW1 5303   2.160   0.765   0.985  0.7050  0.5990  1.9751
 1723SOL    HW2 5304   2.283   0.833   0.929 -0.0638 -0.3666 -1.0883
 1724SOL     OW 5305   1.285   0.660   2.550 -0.3481 -0.3828 -0.0791
 1724SOL    HW1 5306   1.267   0.727   2.616  1.4172 -0.4433  0.5227
 1724SOL    HW2 5307   1.252   0.578   2.588 -1.8450 -0.0161 -0.5068
 1725SOL     OW 5308   1.891   1.962   1.637  0.2626  0.4132 -0.0176
 1725SOL    HW1 5309   1.932   1.903   1.700  1.2803  2.2830  1.1692
 1725SOL    HW2 5310   1.960   2.023   1.612 -0.2121 -0.0185 -2.7335
 1726SOL     OW 5311   1.399   1.423   0.973 -0.3134  0.0687  0.8602
 1726SOL    HW1 5312   1.346   1.464   1.042  1.0480  0.3271  1.7980
 1726SOL    HW2 5313   1.335   1.376   0.919 -1.7222  1.8979  0.8181
 1727SOL     OW 5314   0.808   0.678   2.155  0.6875 -0.4097  0.2161
 1727SOL    HW1 5315   0.779   0.638   2.237  0.8588 -2.3531 -0.6264
 1727SOL    HW2 5316   0.727   0.709   2.114  0.2307 -1.9809 -0.1506
 1728SOL     OW 5317   2.887   0.336   1.646  0.1043 -0.2886  0.8221
 1728SOL    HW1 5318   2.961   0.383   1.608 -2.3357  0.5559 -3.6028
 1728SOL    HW2 5319   2.830   0.405   1.681 -0.5172 -0.5298  0.2966
 1729SOL     OW 5320   0.764   3.211   2.739 -0.4989  0.3846 -0.4570
 1729SOL    HW1 5321   0.746   3.119   2.719 -0.2139  0.2258 -0.0183
 1729SOL    HW2 5322   0.713   3.228   2.818  0.8820  0.0496  0.5517
 1730SOL     OW 5323   1.550   3.269   3.237 -0.0066 -0.1548 -0.1739
 1730SOL    HW1 5324   1.496   3.348   3.229  1.8878  1.5057  1.9901
 1730SOL    HW2 5325   1.636   3.295   3.203  0.6921 -1.2404  0.6823
 1731SOL     OW 5326   1.981   1.017   2.304 -0.0618  0.5302 -0.5588
 1731SOL    HW1 5327   2.064   1.057   2.278  0.4171 -0.4965 -0.6279
 1731SOL    HW2 5328   1.947   0.977   2.225 -1.2402  1.9508 -0.8269
 1732SOL     OW 5329   1.534   1.466   0.721  0.8512 -0.2568  0.3802
 1732SOL    HW1 5330   1.462   1.410   0.748 -0.2060  0.5242 -0.6997
 1732SOL    HW2 5331   1.538   1.534   0.788  0.5359 -0.2751  0.4185
 1733SOL     OW 5332   0.925   1.747   2.336 -0.0758 -0.0534  0.1142
 1733SOL    HW1 5333   0.841   1.724   2.296 -0.5971  0.3687  0.9344
 1733SOL    HW2 5334   0.910   1.834   2.374  1.5987  1.3353 -2.1984
 1734SOL     OW 5335   1.576   1.587   3.198 -0.2816  0.1024  0.2665
 1734SOL    HW1 5336   1.490   1.598   3.238  0.7612 -0.4343  2.8672
 1734SOL    HW2 5337   1.617   1.673   3.205 -1.2512  0.9501 -2.9000
 1735SOL     OW 5338   2.570   2.576   0.351  0.9253  0.6074 -0.0308
 1735SOL    HW1 5339   2.611   2.661   0.337  1.7890  0.0974 -0.7452
 1735SOL    HW2 5340   2.614   2.518   0.288  0.2463 -0.3254  0.3357
 1736SOL     OW 5341   3.174   3.658   1.856 -0.7563 -0.4012  0.2226
 1736SOL    HW1 5342   3.185   3.598   1.781 -3.7699 -0.5484 -0.2337
 1736SOL    HW2 5343   3.142   3.739   1.817  0.2070  0.4671  1.1616
 1737SOL     OW 5344   1.183   1.654   2.282 -0.5335  0.1351  0.5358
 1737SOL    HW1 5345   1.089   1.666   2.296 -0.1991  3.4023  0.8600
 1737SOL    HW2 5346   1.224   1.716   2.343  1.7574  0.0455 -0.8093
 1738SOL     OW 5347   0.923   1.905   0.115  0.4822  0.4966  0.4863
 1738SOL    HW1 5348   0.842   1.952   0.134  0.2843 -0.5660  2.5755
 1738SOL    HW2 5349   0.989   1.973   0.103 -0.7153  1.3832 -1.4423
 1739SOL     OW 5350   3.569   0.029   1.681 -0.2619  0.1518  0.0151
 1739SOL    HW1 5351   3.589   0.115   1.719 -0.0027  0.6343 -1.1487
 1739SOL    HW2 5352   3.654  -0.004   1.652 -0.6268  0.4902 -1.5089
 1740SOL     OW 5353   1.631   0.469   2.603  0.4357 -0.1077 -0.2059
 1740SOL    HW1 5354   1.570   0.502   2.537 -0.7865  4.5494  2.7070
 1740SOL    HW2 5355   1.575   0.450   2.679  2.1141 -1.1492  0.8159
 1741SOL     OW 5356   2.035   1.887   2.492  0.2856  0.5377  0.0588
 1741SOL    HW1 5357   1.944   1.859   2.487  0.3174 -0.0051  1.9850
 1741SOL    HW2 5358   2.077   1.824   2.551  1.4414  1.9188  0.7762
 1742SOL     OW 5359   2.968   1.445   1.137 -0.3432 -0.2797 -0.4833
 1742SOL    HW1 5360   2.980   1.516   1.075  1.6718  0.9223  1.1673
 1742SOL    HW2 5361   2.904   1.478   1.201  1.4657  0.6367  0.9561
 1743SOL     OW 5362   3.025   2.850   0.680 -0.6021  0.0619 -0.3702
 1743SOL    HW1 5363   2.989   2.835   0.593  1.1291 -1.6816 -0.8591
 1743SOL    HW2 5364   3.067   2.936   0.674 -1.3682  0.4108 -0.9226
 1744SOL     OW 5365   1.937   3.414   1.309  0.4039 -0.3328 -0.4662
 1744SOL    HW1 5366   1.875   3.468   1.359 -0.6026 -1.4163 -0.4986
 1744SOL    HW2 5367   2.006   3.392   1.372  0.6013  0.5988 -0.3345
 1745SOL     OW 5368   2.083   3.223   0.957  1.0727 -0.4352 -0.1913
 1745SOL    HW1 5369   2.006   3.194   0.909 -0.2985 -0.5265  1.9232
 1745SOL    HW2 5370   2.123   3.142   0.990  0.9079 -0.2849  0.3887
 1746SOL     OW 5371   1.204   2.462   0.820 -0.6442  0.2028  0.3083
 1746SOL    HW1 5372   1.221   2.512   0.740 -1.1748  2.9588  1.7887
 1746SOL    HW2 5373   1.109   2.466   0.832 -0.5922 -0.3323  0.9736
 1747SOL     OW 5374   0.975   0.564   3.018  0.3593 -0.0926 -0.0756
 1747SOL    HW1 5375   0.881   0.557   3.033 -0.1347 -0.4070 -2.9033
 1747SOL    HW2 5376   0.984   0.619   2.941  2.5533  0.3209  0.3862
 1748SOL     OW 5377   2.284   0.467   1.845  0.1327 -0.3978 -0.0705
 1748SOL    HW1 5378   2.291   0.408   1.770 -0.5837 -1.3145  0.5493
 1748SOL    HW2 5379   2.322   0.418   1.918  3.0544  1.3930 -0.2319
 1749SOL     OW 5380   3.663   0.060   0.044 -0.2958  0.8878  0.2692
 1749SOL    HW1 5381   3.685   0.151   0.028  0.2259  0.3922 -2.1440
 1749SOL    HW2 5382   3.568   0.057   0.036 -0.3266  1.2193  0.4692
 1750SOL     OW 5383   2.454   0.463   1.087 -0.4138 -0.2704 -0.4010
 1750SOL    HW1 5384   2.526   0.525   1.099  0.4615 -1.2293 -0.5357
 1750SOL    HW2 5385   2.416   0.486   1.002 -0.7871  0.7447  0.0286
 1751SOL     OW 5386   2.129   3.267   2.103 -0.3873  0.4154  0.2455
 1751SOL    HW1 5387   2.076   3.334   2.146 -0.9012  0.1918 -0.0379
 1751SOL    HW2 5388   2.094   3.262   2.014 -1.1198 -1.0441  0.5841
 1752SOL     OW 5389   2.356   2.767   0.978  0.0981 -0.2257 -0.9323
 1752SOL    HW1 5390   2.358   2.787   0.884 -1.9500 -0.3925 -1.0555
 1752SOL    HW2 5391   2.332   2.674   0.981 -0.6465 -0.0195 -0.2557
 1753SOL     OW 5392   3.256   3.545   0.194 -0.1872  0.0532  0.0566
 1753SOL    HW1 5393   3.236   3.488   0.268 -2.8883  0.2180 -0.4625
 1753SOL    HW2 5394   3.304   3.489   0.133 -2.3510 -1.6137 -0.2281
 1754SOL     OW 5395   1.709   2.569   1.322  0.3654  0.5234 -1.0620
 1754SOL    HW1 5396   1.686   2.633   1.255 -1.6271  0.3217 -0.6409
 1754SOL    HW2 5397   1.633   2.567   1.380  0.9150 -1.2877 -0.3358
 1755SOL     OW 5398   2.522   2.663   3.609  0.0333 -0.3872 -1.0667
 1755SOL    HW1 5399   2.612   2.658   3.577  1.0196 -1.8725  1.6396
 1755SOL    HW2 5400   2.521   2.740   3.666 -0.9417  0.6110 -2.3569
 1756SOL     OW 5401   2.117   0.327   0.699  0.1297 -0.3499 -0.0145
 1756SOL    HW1 5402   2.072   0.268   0.760 -0.5927  0.8229  0.6272
 1756SOL    HW2 5403   2.210   0.309   0.712 -0.0818 -2.2568 -0.7814
 1757SOL     OW 5404   0.767   1.977   0.860 -0.5633  0.1285 -0.1062
 1757SOL    HW1 5405   0.672   1.982   0.842 -0.2198  3.0763 -1.8718
 1757SOL    HW2 5406   0.785   2.055   0.912  0.8310 -0.8047  0.8575
 1758SOL     OW 5407   3.572   1.823   0.586 -0.0684 -0.6517 -0.4413
 1758SOL    HW1 5408   3.645   1.820   0.648 -1.1327  1.0167  0.9823
 1758SOL    HW2 5409   3.540   1.913   0.591 -1.6060 -1.0840 -1.7530
 1759SOL     OW 5410   1.051   0.225   0.812  0.2860  0.3039  0.3480
 1759SOL    HW1 5411   1.129   0.195   0.859 -1.0112 -2.0888  1.1680
 1759SOL    HW2 5412   1.027   0.307   0.855  0.8030 -0.3566  1.9669
 1760SOL     OW 5413   2.002   3.514   3.419 -0.6053  0.0863  0.2154
 1760SOL    HW1 5414   1.995   3.571   3.496  1.9314 -0.3424  0.8771
 1760SOL    HW2 5415   2.002   3.425   3.454  3.1313 -0.1027  0.1927
 1761SOL     OW 5416   1.279   1.431   0.165  0.2841  0.6547  0.1529
 1761SOL    HW1 5417   1.354   1.474   0.206  0.3678  1.4312 -0.7850
 1761SOL    HW2 5418   1.203   1.469   0.210  0.3956  0.9663  0.0772
 1762SOL     OW 5419   2.764   2.430   0.515 -0.3987 -0.1628  0.2407
 1762SOL    HW1 5420   2.773   2.354   0.572 -1.6723 -2.4845 -2.4205
 1762SOL    HW2 5421   2.673   2.426   0.484  0.0251  1.4118 -1.3485
 1763SOL     OW 5422   0.543   2.888   2.601  0.0600  0.0834  0.0796
 1763SOL    HW1 5423   0.565   2.930   2.685 -1.1814  1.4790 -0.2484
 1763SOL    HW2 5424   0.606   2.925   2.539 -0.2485  0.5440  0.0345
 1764SOL     OW 5425   2.757   3.590   0.092 -0.6638 -0.1037 -0.1632
 1764SOL    HW1 5426   2.738   3.496   0.097  0.5996 -0.5863 -2.8771
 1764SOL    HW2 5427   2.679   3.628   0.052 -0.6119 -0.1979 -0.3506
 1765SOL     OW 5428   1.200   0.565   3.185 -0.1866  0.2326 -0.0650
 1765SOL    HW1 5429   1.118   0.574   3.137 -0.4914  2.6895  0.7614
 1765SOL    HW2 5430   1.266   0.607   3.129  0.5095 -1.4820 -0.5999
 1766SOL     OW 5431   2.254   3.286   3.665  0.1290 -0.5814  0.0628
 1766SOL    HW1 5432   2.273   3.305   3.757 -0.6299  0.1777  0.0778
 1766SOL    HW2 5433   2.307   3.349   3.616 -1.3320  0.7392  0.0751
 1767NA      NA 5434   3.371   1.696   0.540  0.3128  0.3367 -0.0594
 1768NA      NA 5435   0.975   0.741   2.284  0.0786 -0.2588 -0.1077
   3.71210   3.71210   3.71210
