Converted from md.pdb
5438
    0  TYR    N    1   1.168   2.675   1.812
    0  TYR   H1    2   1.190   2.761   1.866
    0  TYR   H2    3   1.064   2.667   1.816
    0  TYR   H3    4   1.206   2.706   1.720
    0  TYR   CA    5   1.238   2.555   1.874
    0  TYR   HA    6   1.204   2.559   1.977
    0  TYR   CB    7   1.200   2.420   1.788
    0  TYR  HB1    8   1.092   2.439   1.770
    0  TYR  HB2    9   1.209   2.329   1.852
    0  TYR   CG   10   1.274   2.399   1.658
    0  TYR  CD1   11   1.225   2.455   1.538
    0  TYR  HD1   12   1.144   2.526   1.539
    0  TYR  CE1   13   1.286   2.418   1.413
    0  TYR  HE1   14   1.259   2.463   1.319
    0  TYR   CZ   15   1.399   2.337   1.414
    0  TYR   OH   16   1.469   2.311   1.301
    0  TYR   HH   17   1.558   2.295   1.333
    0  TYR  CD2   18   1.377   2.307   1.653
    0  TYR  HD2   19   1.414   2.246   1.734
    0  TYR  CE2   20   1.441   2.276   1.534
    0  TYR  HE2   21   1.502   2.186   1.539
    0  TYR    C   22   1.393   2.565   1.902
    0  TYR    O   23   1.448   2.674   1.885
    1  TYR    N   24   1.466   2.452   1.938
    1  TYR   HN   25   1.427   2.361   1.948
    1  TYR   CA   26   1.604   2.444   1.952
    1  TYR   HA   27   1.648   2.510   1.879
    1  TYR   CB   28   1.650   2.463   2.095
    1  TYR  HB1   29   1.589   2.407   2.170
    1  TYR  HB2   30   1.618   2.567   2.118
    1  TYR   CG   31   1.805   2.453   2.106
    1  TYR  CD1   32   1.890   2.516   2.016
    1  TYR  HD1   33   1.861   2.581   1.935
    1  TYR  CE1   34   2.032   2.487   2.029
    1  TYR  HE1   35   2.105   2.528   1.960
    1  TYR   CZ   36   2.078   2.420   2.138
    1  TYR   OH   37   2.216   2.423   2.172
    1  TYR   HH   38   2.235   2.354   2.236
    1  TYR  CD2   39   1.855   2.375   2.212
    1  TYR  HD2   40   1.788   2.324   2.279
    1  TYR  CE2   41   1.994   2.341   2.222
    1  TYR  HE2   42   2.023   2.291   2.313
    1  TYR    C   43   1.647   2.299   1.908
    1  TYR    O   44   1.567   2.210   1.930
    2  ASP    N   45   1.770   2.280   1.855
    2  ASP   HN   46   1.822   2.361   1.829
    2  ASP   CA   47   1.828   2.157   1.806
    2  ASP   HA   48   1.773   2.066   1.827
    2  ASP   CB   49   1.828   2.156   1.650
    2  ASP  HB1   50   1.869   2.248   1.604
    2  ASP  HB2   51   1.725   2.151   1.609
    2  ASP   CG   52   1.894   2.028   1.590
    2  ASP  OD1   53   1.988   2.039   1.504
    2  ASP  OD2   54   1.833   1.919   1.610
    2  ASP    C   55   1.972   2.147   1.857
    2  ASP    O   56   2.066   2.193   1.789
    3  PRO    N   57   1.992   2.085   1.971
    3  PRO   CD   58   1.885   2.020   2.054
    3  PRO  HD1   59   1.803   2.094   2.070
    3  PRO  HD2   60   1.847   1.931   2.000
    3  PRO   CA   61   2.129   2.061   2.031
    3  PRO   HA   62   2.179   2.154   2.050
    3  PRO   CB   63   2.099   1.978   2.157
    3  PRO  HB1   64   2.157   2.011   2.245
    3  PRO  HB2   65   2.134   1.874   2.141
    3  PRO   CG   66   1.949   1.992   2.185
    3  PRO  HG1   67   1.923   2.079   2.248
    3  PRO  HG2   68   1.906   1.896   2.222
    3  PRO    C   69   2.232   1.983   1.942
    3  PRO    O   70   2.189   1.894   1.871
    4  GLU    N   71   2.369   2.014   1.950
    4  GLU   HN   72   2.402   2.101   1.988
    4  GLU   CA   73   2.464   1.924   1.877
    4  GLU   HA   74   2.413   1.851   1.815
    4  GLU   CB   75   2.548   2.012   1.780
    4  GLU  HB1   76   2.616   2.077   1.839
    4  GLU  HB2   77   2.472   2.070   1.724
    4  GLU   CG   78   2.623   1.933   1.669
    4  GLU  HG1   79   2.548   1.878   1.608
    4  GLU  HG2   80   2.706   1.866   1.699
    4  GLU   CD   81   2.686   2.042   1.575
    4  GLU  OE1   82   2.810   2.062   1.576
    4  GLU  OE2   83   2.605   2.102   1.501
    4  GLU    C   84   2.564   1.855   1.984
    4  GLU    O   85   2.566   1.885   2.102
    5  THR    N   86   2.645   1.753   1.943
    5  THR   HN   87   2.661   1.747   1.844
    5  THR   CA   88   2.748   1.701   2.032
    5  THR   HA   89   2.778   1.776   2.104
    5  THR   CB   90   2.711   1.569   2.108
    5  THR   HB   91   2.667   1.496   2.037
    5  THR  OG1   92   2.613   1.595   2.203
    5  THR  HG1   93   2.532   1.577   2.154
    5  THR  CG2   94   2.824   1.495   2.174
    5  THR 1HG2   95   2.781   1.422   2.246
    5  THR 2HG2   96   2.880   1.565   2.240
    5  THR 3HG2   97   2.889   1.440   2.103
    5  THR    C   98   2.874   1.662   1.962
    5  THR    O   99   2.868   1.596   1.858
    6  GLY    N  100   2.992   1.709   2.013
    6  GLY   HN  101   3.000   1.770   2.091
    6  GLY   CA  102   3.127   1.669   1.960
    6  GLY  HA1  103   3.185   1.760   1.963
    6  GLY  HA2  104   3.109   1.641   1.857
    6  GLY    C  105   3.198   1.539   2.011
    6  GLY    O  106   3.170   1.490   2.118
    7  THR    N  107   3.290   1.484   1.932
    7  THR   HN  108   3.316   1.518   1.843
    7  THR   CA  109   3.367   1.367   1.972
    7  THR   HA  110   3.367   1.350   2.078
    7  THR   CB  111   3.330   1.222   1.911
    7  THR   HB  112   3.351   1.233   1.802
    7  THR  OG1  113   3.197   1.190   1.950
    7  THR  HG1  114   3.167   1.195   1.859
    7  THR  CG2  115   3.425   1.112   1.961
    7  THR 1HG2  116   3.418   1.022   1.897
    7  THR 2HG2  117   3.401   1.078   2.064
    7  THR 3HG2  118   3.528   1.153   1.965
    7  THR    C  119   3.507   1.387   1.937
    7  THR    O  120   3.545   1.400   1.820
    8  TRP    N  121   3.595   1.400   2.038
    8  TRP   HN  122   3.549   1.402   2.127
    8  TRP   CA  123   3.742   1.422   2.029
    8  TRP   HA  124   3.773   1.422   1.926
    8  TRP   CB  125   3.783   1.558   2.087
    8  TRP  HB1  126   3.894   1.569   2.090
    8  TRP  HB2  127   3.756   1.564   2.195
    8  TRP   CG  128   3.719   1.670   2.016
    8  TRP  CD1  129   3.743   1.708   1.887
    8  TRP  HD1  130   3.814   1.666   1.818
    8  TRP  NE1  131   3.663   1.812   1.847
    8  TRP  HE1  132   3.656   1.841   1.754
    8  TRP  CE2  133   3.581   1.841   1.952
    8  TRP  CD2  134   3.617   1.759   2.059
    8  TRP  CE3  135   3.552   1.764   2.181
    8  TRP  HE3  136   3.575   1.700   2.264
    8  TRP  CZ3  137   3.452   1.860   2.199
    8  TRP  HZ3  138   3.403   1.881   2.293
    8  TRP  CZ2  139   3.472   1.931   1.961
    8  TRP  HZ2  140   3.442   1.994   1.879
    8  TRP  CH2  141   3.416   1.944   2.088
    8  TRP  HH2  142   3.339   2.019   2.102
    8  TRP    C  143   3.809   1.306   2.094
    8  TRP    O  144   3.745   1.226   2.152
    9  ARG    N  145   3.939   1.288   2.065
    9  ARG   HN  146   3.994   1.360   2.022
    9  ARG   CA  147   4.006   1.167   2.115
    9  ARG   HA  148   3.935   1.107   2.171
    9  ARG   CB  149   4.064   1.076   2.000
    9  ARG  HB1  150   4.099   0.981   2.045
    9  ARG  HB2  151   4.152   1.120   1.949
    9  ARG   CG  152   3.966   1.049   1.886
    9  ARG  HG1  153   3.931   1.144   1.841
    9  ARG  HG2  154   4.013   0.995   1.801
    9  ARG   CD  155   3.847   0.966   1.928
    9  ARG  HD1  156   3.881   0.866   1.964
    9  ARG  HD2  157   3.777   1.007   2.004
    9  ARG   NE  158   3.763   0.948   1.802
    9  ARG   HE  159   3.793   0.984   1.713
    9  ARG   CZ  160   3.634   0.902   1.799
    9  ARG  NH1  161   3.573   0.902   1.679
    9  ARG 1HH1  162   3.493   0.842   1.668
    9  ARG 2HH1  163   3.627   0.932   1.601
    9  ARG  NH2  164   3.587   0.839   1.907
    9  ARG 1HH2  165   3.495   0.801   1.894
    9  ARG 2HH2  166   3.647   0.774   1.953
    9  ARG    C  167   4.126   1.199   2.208
    9  ARG  OT1  168   4.225   1.264   2.170
    9  ARG  OT2  169   4.117   1.149   2.323
   10  SOL   OW  170   0.256   0.370   0.377
   10  SOL  HW1  171   0.309   0.305   0.331
   10  SOL  HW2  172   0.289   0.455   0.346
   11  SOL   OW  173   3.071   1.703   0.684
   11  SOL  HW1  174   3.116   1.627   0.721
   11  SOL  HW2  175   3.039   1.751   0.761
   12  SOL   OW  176   0.195   0.904   2.975
   12  SOL  HW1  177   0.112   0.855   2.971
   12  SOL  HW2  178   0.249   0.864   2.906
   13  SOL   OW  179   2.274   0.857   1.711
   13  SOL  HW1  180   2.275   0.816   1.798
   13  SOL  HW2  181   2.186   0.892   1.701
   14  SOL   OW  182   0.747   1.208   2.593
   14  SOL  HW1  183   0.677   1.269   2.619
   14  SOL  HW2  184   0.701   1.133   2.555
   15  SOL   OW  185   0.923   1.432   1.209
   15  SOL  HW1  186   0.901   1.417   1.117
   15  SOL  HW2  187   0.941   1.526   1.214
   16  SOL   OW  188   2.145   0.370   0.388
   16  SOL  HW1  189   2.091   0.366   0.308
   16  SOL  HW2  190   2.189   0.285   0.390
   17  SOL   OW  191   2.112   1.785   0.641
   17  SOL  HW1  192   2.193   1.835   0.635
   17  SOL  HW2  193   2.114   1.745   0.728
   18  SOL   OW  194   0.839   1.000   0.934
   18  SOL  HW1  195   0.928   0.978   0.961
   18  SOL  HW2  196   0.784   0.974   1.009
   19  SOL   OW  197   0.108   2.273   3.411
   19  SOL  HW1  198   0.059   2.320   3.479
   19  SOL  HW2  199   0.113   2.334   3.338
   20  SOL   OW  200   0.780   0.053   0.605
   20  SOL  HW1  201   0.800   0.127   0.547
   20  SOL  HW2  202   0.774  -0.022   0.546
   21  SOL   OW  203   0.962   1.385   1.474
   21  SOL  HW1  204   0.870   1.381   1.500
   21  SOL  HW2  205   0.959   1.402   1.379
   22  SOL   OW  206   0.360   3.440   1.499
   22  SOL  HW1  207   0.372   3.510   1.562
   22  SOL  HW2  208   0.275   3.458   1.458
   23  SOL   OW  209   1.400   1.121   3.308
   23  SOL  HW1  210   1.334   1.052   3.311
   23  SOL  HW2  211   1.375   1.176   3.234
   24  SOL   OW  212   3.143   3.174   0.309
   24  SOL  HW1  213   3.102   3.201   0.391
   24  SOL  HW2  214   3.211   3.113   0.336
   25  SOL   OW  215   2.799   0.573   3.501
   25  SOL  HW1  216   2.794   0.658   3.545
   25  SOL  HW2  217   2.880   0.534   3.534
   26  SOL   OW  218   0.264   2.392   3.721
   26  SOL  HW1  219   0.329   2.323   3.708
   26  SOL  HW2  220   0.186   2.346   3.752
   27  SOL   OW  221   1.339   2.784   2.998
   27  SOL  HW1  222   1.351   2.752   2.908
   27  SOL  HW2  223   1.417   2.753   3.045
   28  SOL   OW  224   2.400   2.607   2.090
   28  SOL  HW1  225   2.345   2.617   2.012
   28  SOL  HW2  226   2.339   2.591   2.161
   29  SOL   OW  227   1.666   3.000   2.564
   29  SOL  HW1  228   1.672   3.074   2.624
   29  SOL  HW2  229   1.743   3.008   2.507
   30  SOL   OW  230   1.150   0.595   0.606
   30  SOL  HW1  231   1.180   0.524   0.550
   30  SOL  HW2  232   1.230   0.632   0.643
   31  SOL   OW  233   0.103   0.099   0.137
   31  SOL  HW1  234   0.045   0.171   0.163
   31  SOL  HW2  235   0.050   0.047   0.076
   32  SOL   OW  236   1.628   2.750   2.694
   32  SOL  HW1  237   1.605   2.837   2.661
   32  SOL  HW2  238   1.544   2.713   2.722
   33  SOL   OW  239   0.768   0.405   2.493
   33  SOL  HW1  240   0.781   0.312   2.473
   33  SOL  HW2  241   0.855   0.436   2.520
   34  SOL   OW  242   0.748   0.255   2.192
   34  SOL  HW1  243   0.761   0.227   2.283
   34  SOL  HW2  244   0.782   0.344   2.189
   35  SOL   OW  245   1.555   2.302   0.068
   35  SOL  HW1  246   1.585   2.224   0.114
   35  SOL  HW2  247   1.534   2.272  -0.020
   36  SOL   OW  248   3.267   0.178   3.617
   36  SOL  HW1  249   3.259   0.271   3.640
   36  SOL  HW2  250   3.251   0.132   3.699
   37  SOL   OW  251   2.867   3.564   1.677
   37  SOL  HW1  252   2.827   3.561   1.591
   37  SOL  HW2  253   2.795   3.585   1.737
   38  SOL   OW  254   1.420   3.157   0.310
   38  SOL  HW1  255   1.514   3.148   0.326
   38  SOL  HW2  256   1.408   3.128   0.220
   39  SOL   OW  257   3.204   1.752   0.453
   39  SOL  HW1  258   3.172   1.731   0.541
   39  SOL  HW2  259   3.125   1.763   0.400
   40  SOL   OW  260   3.508   0.918   1.316
   40  SOL  HW1  261   3.581   0.929   1.256
   40  SOL  HW2  262   3.457   0.999   1.308
   41  SOL   OW  263   3.570   1.432   1.249
   41  SOL  HW1  264   3.581   1.526   1.235
   41  SOL  HW2  265   3.547   1.398   1.162
   42  SOL   OW  266   1.902   2.184   0.421
   42  SOL  HW1  267   1.938   2.272   0.436
   42  SOL  HW2  268   1.962   2.144   0.358
   43  SOL   OW  269   1.027   1.599   0.445
   43  SOL  HW1  270   1.059   1.556   0.366
   43  SOL  HW2  271   1.106   1.615   0.497
   44  SOL   OW  272   1.874   0.462   1.402
   44  SOL  HW1  273   1.914   0.459   1.489
   44  SOL  HW2  274   1.948   0.464   1.341
   45  SOL   OW  275   1.366   1.997   1.126
   45  SOL  HW1  276   1.375   1.902   1.118
   45  SOL  HW2  277   1.442   2.024   1.177
   46  SOL   OW  278   1.140   0.250   0.054
   46  SOL  HW1  279   1.096   0.210  -0.021
   46  SOL  HW2  280   1.091   0.221   0.130
   47  SOL   OW  281   1.650   3.326   3.020
   47  SOL  HW1  282   1.706   3.363   2.951
   47  SOL  HW2  283   1.699   3.253   3.055
   48  SOL   OW  284   1.097   0.913   1.855
   48  SOL  HW1  285   1.113   0.986   1.916
   48  SOL  HW2  286   1.179   0.863   1.856
   49  SOL   OW  287   0.585   3.400   0.481
   49  SOL  HW1  288   0.602   3.457   0.407
   49  SOL  HW2  289   0.498   3.427   0.513
   50  SOL   OW  290   1.472   0.510   1.522
   50  SOL  HW1  291   1.508   0.429   1.557
   50  SOL  HW2  292   1.455   0.491   1.430
   51  SOL   OW  293   1.345   3.696   1.175
   51  SOL  HW1  294   1.360   3.673   1.084
   51  SOL  HW2  295   1.384   3.623   1.225
   52  SOL   OW  296   2.954   0.478   0.700
   52  SOL  HW1  297   3.038   0.525   0.708
   52  SOL  HW2  298   2.931   0.455   0.790
   53  SOL   OW  299   1.960   2.740   1.177
   53  SOL  HW1  300   1.968   2.648   1.203
   53  SOL  HW2  301   1.944   2.787   1.259
   54  SOL   OW  302   0.494   2.829   1.540
   54  SOL  HW1  303   0.503   2.748   1.590
   54  SOL  HW2  304   0.445   2.803   1.462
   55  SOL   OW  305   2.591   2.059   0.727
   55  SOL  HW1  306   2.603   1.993   0.794
   55  SOL  HW2  307   2.624   2.019   0.647
   56  SOL   OW  308   2.341   0.460   1.073
   56  SOL  HW1  309   2.357   0.394   1.005
   56  SOL  HW2  310   2.376   0.421   1.153
   57  SOL   OW  311   1.357   2.831   0.730
   57  SOL  HW1  312   1.426   2.794   0.785
   57  SOL  HW2  313   1.399   2.845   0.645
   58  SOL   OW  314   0.041   2.256   3.077
   58  SOL  HW1  315  -0.031   2.289   3.131
   58  SOL  HW2  316   0.012   2.269   2.987
   59  SOL   OW  317   0.347   2.437   1.856
   59  SOL  HW1  318   0.290   2.411   1.928
   59  SOL  HW2  319   0.430   2.392   1.874
   60  SOL   OW  320   2.768   2.405   1.117
   60  SOL  HW1  321   2.843   2.353   1.087
   60  SOL  HW2  322   2.715   2.344   1.168
   61  SOL   OW  323   3.000   1.798   2.960
   61  SOL  HW1  324   3.009   1.894   2.958
   61  SOL  HW2  325   3.008   1.772   2.868
   62  SOL   OW  326   2.130   1.090   0.213
   62  SOL  HW1  327   2.042   1.129   0.213
   62  SOL  HW2  328   2.128   1.028   0.285
   63  SOL   OW  329   2.033   1.210   0.500
   63  SOL  HW1  330   2.115   1.174   0.532
   63  SOL  HW2  331   2.033   1.301   0.532
   64  SOL   OW  332   0.754   1.648   3.388
   64  SOL  HW1  333   0.662   1.627   3.406
   64  SOL  HW2  334   0.759   1.743   3.395
   65  SOL   OW  335   1.198   1.351   1.179
   65  SOL  HW1  336   1.112   1.309   1.182
   65  SOL  HW2  337   1.190   1.418   1.111
   66  SOL   OW  338   2.322   2.015   0.830
   66  SOL  HW1  339   2.409   2.049   0.807
   66  SOL  HW2  340   2.338   1.925   0.856
   67  SOL   OW  341   2.925   1.216   1.647
   67  SOL  HW1  342   3.006   1.265   1.651
   67  SOL  HW2  343   2.856   1.282   1.655
   68  SOL   OW  344   1.129   0.897   1.537
   68  SOL  HW1  345   1.092   0.900   1.625
   68  SOL  HW2  346   1.151   0.804   1.523
   69  SOL   OW  347   3.689   2.339   0.152
   69  SOL  HW1  348   3.693   2.244   0.161
   69  SOL  HW2  349   3.689   2.372   0.241
   70  SOL   OW  350   2.675   3.687   2.146
   70  SOL  HW1  351   2.584   3.656   2.147
   70  SOL  HW2  352   2.679   3.748   2.073
   71  SOL   OW  353   0.564   0.358   3.652
   71  SOL  HW1  354   0.613   0.303   3.591
   71  SOL  HW2  355   0.513   0.416   3.596
   72  SOL   OW  356   1.937   1.538   1.785
   72  SOL  HW1  357   1.947   1.443   1.786
   72  SOL  HW2  358   1.996   1.568   1.715
   73  SOL   OW  359   2.855   1.677   3.474
   73  SOL  HW1  360   2.801   1.611   3.431
   73  SOL  HW2  361   2.941   1.636   3.483
   74  SOL   OW  362   2.633   1.641   1.555
   74  SOL  HW1  363   2.725   1.647   1.531
   74  SOL  HW2  364   2.589   1.611   1.476
   75  SOL   OW  365   1.522   1.136   3.613
   75  SOL  HW1  366   1.578   1.149   3.537
   75  SOL  HW2  367   1.572   1.174   3.686
   76  SOL   OW  368   0.878   0.995   2.798
   76  SOL  HW1  369   0.793   0.957   2.821
   76  SOL  HW2  370   0.864   1.039   2.715
   77  SOL   OW  371   3.101   0.966   3.091
   77  SOL  HW1  372   3.150   0.891   3.124
   77  SOL  HW2  373   3.014   0.931   3.071
   78  SOL   OW  374   2.175   0.714   2.268
   78  SOL  HW1  375   2.143   0.642   2.322
   78  SOL  HW2  376   2.251   0.749   2.316
   79  SOL   OW  377   0.993   3.489   1.824
   79  SOL  HW1  378   0.913   3.437   1.834
   79  SOL  HW2  379   1.051   3.457   1.894
   80  SOL   OW  380   2.180   2.674   0.071
   80  SOL  HW1  381   2.154   2.587   0.042
   80  SOL  HW2  382   2.274   2.678   0.052
   81  SOL   OW  383   2.266   0.908   1.024
   81  SOL  HW1  384   2.253   0.877   1.114
   81  SOL  HW2  385   2.346   0.960   1.027
   82  SOL   OW  386   1.956   0.724   0.126
   82  SOL  HW1  387   1.885   0.675   0.084
   82  SOL  HW2  388   2.034   0.671   0.111
   83  SOL   OW  389   2.081   3.675   3.537
   83  SOL  HW1  390   2.026   3.620   3.482
   83  SOL  HW2  391   2.148   3.710   3.478
   84  SOL   OW  392   3.246   0.416   0.053
   84  SOL  HW1  393   3.198   0.459   0.123
   84  SOL  HW2  394   3.305   0.483   0.019
   85  SOL   OW  395   0.388   2.646   1.181
   85  SOL  HW1  396   0.299   2.666   1.150
   85  SOL  HW2  397   0.422   2.584   1.116
   86  SOL   OW  398   1.544   1.980   3.674
   86  SOL  HW1  399   1.464   1.940   3.708
   86  SOL  HW2  400   1.554   1.946   3.586
   87  SOL   OW  401   0.568   2.079   3.061
   87  SOL  HW1  402   0.504   2.118   3.121
   87  SOL  HW2  403   0.570   2.138   2.986
   88  SOL   OW  404   1.905   0.285   2.720
   88  SOL  HW1  405   1.931   0.323   2.636
   88  SOL  HW2  406   1.822   0.241   2.702
   89  SOL   OW  407   0.861   1.223   1.928
   89  SOL  HW1  408   0.857   1.319   1.920
   89  SOL  HW2  409   0.937   1.208   1.985
   90  SOL   OW  410   3.185   3.531   3.482
   90  SOL  HW1  411   3.110   3.506   3.537
   90  SOL  HW2  412   3.148   3.544   3.395
   91  SOL   OW  413   1.348   3.306   3.360
   91  SOL  HW1  414   1.352   3.326   3.453
   91  SOL  HW2  415   1.262   3.338   3.332
   92  SOL   OW  416   2.273   1.500   2.978
   92  SOL  HW1  417   2.321   1.581   2.958
   92  SOL  HW2  418   2.300   1.439   2.909
   93  SOL   OW  419   3.394   2.184   0.082
   93  SOL  HW1  420   3.408   2.229   0.165
   93  SOL  HW2  421   3.299   2.172   0.077
   94  SOL   OW  422   1.633   2.949   0.649
   94  SOL  HW1  423   1.575   2.979   0.579
   94  SOL  HW2  424   1.707   2.909   0.603
   95  SOL   OW  425   1.753   2.631   1.033
   95  SOL  HW1  426   1.838   2.673   1.047
   95  SOL  HW2  427   1.716   2.622   1.121
   96  SOL   OW  428   1.431   0.706   0.622
   96  SOL  HW1  429   1.482   0.771   0.671
   96  SOL  HW2  430   1.416   0.747   0.537
   97  SOL   OW  431   0.624   1.905   2.257
   97  SOL  HW1  432   0.594   1.896   2.167
   97  SOL  HW2  433   0.714   1.938   2.249
   98  SOL   OW  434   1.048   0.176   2.348
   98  SOL  HW1  435   1.019   0.136   2.431
   98  SOL  HW2  436   0.985   0.143   2.283
   99  SOL   OW  437   3.267   0.374   0.636
   99  SOL  HW1  438   3.296   0.437   0.703
   99  SOL  HW2  439   3.197   0.325   0.678
  100  SOL   OW  440   3.536   1.145   3.599
  100  SOL  HW1  441   3.585   1.103   3.529
  100  SOL  HW2  442   3.452   1.166   3.560
  101  SOL   OW  443   3.588   0.189   3.033
  101  SOL  HW1  444   3.601   0.170   2.940
  101  SOL  HW2  445   3.497   0.165   3.050
  102  SOL   OW  446   1.639   3.135   1.513
  102  SOL  HW1  447   1.575   3.175   1.453
  102  SOL  HW2  448   1.663   3.053   1.472
  103  SOL   OW  449   1.899   0.778   0.537
  103  SOL  HW1  450   1.940   0.703   0.581
  103  SOL  HW2  451   1.833   0.739   0.480
  104  SOL   OW  452   1.666   2.592   2.431
  104  SOL  HW1  453   1.708   2.602   2.517
  104  SOL  HW2  454   1.670   2.498   2.413
  105  SOL   OW  455   3.453   2.709   3.571
  105  SOL  HW1  456   3.448   2.804   3.566
  105  SOL  HW2  457   3.428   2.688   3.661
  106  SOL   OW  458   1.436   0.407   2.520
  106  SOL  HW1  459   1.369   0.405   2.452
  106  SOL  HW2  460   1.462   0.315   2.532
  107  SOL   OW  461   0.787   0.753   0.806
  107  SOL  HW1  462   0.774   0.743   0.712
  107  SOL  HW2  463   0.777   0.847   0.821
  108  SOL   OW  464   0.684   1.663   1.383
  108  SOL  HW1  465   0.673   1.574   1.416
  108  SOL  HW2  466   0.682   1.653   1.288
  109  SOL   OW  467   3.054   1.543   3.689
  109  SOL  HW1  468   3.079   1.452   3.676
  109  SOL  HW2  469   3.103   1.592   3.624
  110  SOL   OW  470   1.849   2.654   0.681
  110  SOL  HW1  471   1.784   2.605   0.630
  110  SOL  HW2  472   1.868   2.597   0.755
  111  SOL   OW  473   0.062   1.897   1.388
  111  SOL  HW1  474   0.111   1.978   1.401
  111  SOL  HW2  475   0.108   1.832   1.442
  112  SOL   OW  476   3.189   3.593   2.604
  112  SOL  HW1  477   3.126   3.531   2.569
  112  SOL  HW2  478   3.211   3.559   2.691
  113  SOL   OW  479   0.868   1.921   1.334
  113  SOL  HW1  480   0.927   1.846   1.342
  113  SOL  HW2  481   0.788   1.893   1.379
  114  SOL   OW  482   0.830   1.931   3.391
  114  SOL  HW1  483   0.908   1.983   3.371
  114  SOL  HW2  484   0.772   1.992   3.437
  115  SOL   OW  485   3.003   1.462   0.231
  115  SOL  HW1  486   3.042   1.439   0.147
  115  SOL  HW2  487   2.917   1.499   0.208
  116  SOL   OW  488   1.825   1.121   0.629
  116  SOL  HW1  489   1.874   1.058   0.682
  116  SOL  HW2  490   1.885   1.145   0.559
  117  SOL   OW  491   2.345   2.623   3.128
  117  SOL  HW1  492   2.347   2.546   3.072
  117  SOL  HW2  493   2.423   2.615   3.182
  118  SOL   OW  494   1.605   3.613   0.143
  118  SOL  HW1  495   1.619   3.672   0.069
  118  SOL  HW2  496   1.523   3.567   0.122
  119  SOL   OW  497   1.031   1.241   3.089
  119  SOL  HW1  498   1.117   1.273   3.115
  119  SOL  HW2  499   1.038   1.145   3.095
  120  SOL   OW  500   1.491   1.502   0.161
  120  SOL  HW1  501   1.480   1.428   0.221
  120  SOL  HW2  502   1.581   1.532   0.178
  121  SOL   OW  503   0.837   1.348   0.979
  121  SOL  HW1  504   0.803   1.263   1.006
  121  SOL  HW2  505   0.802   1.361   0.891
  122  SOL   OW  506   1.636   2.527   3.515
  122  SOL  HW1  507   1.592   2.442   3.513
  122  SOL  HW2  508   1.565   2.590   3.531
  123  SOL   OW  509   2.633   3.579   3.383
  123  SOL  HW1  510   2.623   3.665   3.424
  123  SOL  HW2  511   2.571   3.522   3.431
  124  SOL   OW  512   3.568   2.946   0.342
  124  SOL  HW1  513   3.647   2.998   0.356
  124  SOL  HW2  514   3.511   2.969   0.416
  125  SOL   OW  515   3.597   0.996   2.547
  125  SOL  HW1  516   3.587   0.902   2.531
  125  SOL  HW2  517   3.669   1.002   2.610
  126  SOL   OW  518   0.047   1.022   1.518
  126  SOL  HW1  519   0.025   1.105   1.476
  126  SOL  HW2  520   0.123   0.990   1.469
  127  SOL   OW  521   0.480   1.262   3.320
  127  SOL  HW1  522   0.491   1.256   3.415
  127  SOL  HW2  523   0.496   1.173   3.288
  128  SOL   OW  524   2.262   0.024   1.015
  128  SOL  HW1  525   2.192  -0.005   0.957
  128  SOL  HW2  526   2.271   0.118   0.995
  129  SOL   OW  527   3.057   3.469   1.359
  129  SOL  HW1  528   3.029   3.457   1.268
  129  SOL  HW2  529   3.031   3.558   1.381
  130  SOL   OW  530   2.010   1.982   0.228
  130  SOL  HW1  531   1.941   1.950   0.286
  130  SOL  HW2  532   1.965   2.002   0.146
  131  SOL   OW  533   0.492   0.747   1.326
  131  SOL  HW1  534   0.563   0.697   1.366
  131  SOL  HW2  535   0.485   0.713   1.237
  132  SOL   OW  536   2.135   2.790   2.646
  132  SOL  HW1  537   2.058   2.811   2.700
  132  SOL  HW2  538   2.127   2.696   2.631
  133  SOL   OW  539   2.752   2.259   3.261
  133  SOL  HW1  540   2.802   2.178   3.269
  133  SOL  HW2  541   2.800   2.322   3.315
  134  SOL   OW  542   1.732   2.925   1.374
  134  SOL  HW1  543   1.667   2.876   1.323
  134  SOL  HW2  544   1.793   2.859   1.405
  135  SOL   OW  545   2.521   0.989   1.747
  135  SOL  HW1  546   2.523   1.078   1.710
  135  SOL  HW2  547   2.429   0.963   1.741
  136  SOL   OW  548   2.525   1.581   0.113
  136  SOL  HW1  549   2.618   1.558   0.105
  136  SOL  HW2  550   2.479   1.510   0.068
  137  SOL   OW  551   0.231   2.088   3.580
  137  SOL  HW1  552   0.178   2.146   3.526
  137  SOL  HW2  553   0.320   2.095   3.544
  138  SOL   OW  554   3.580   0.724   2.632
  138  SOL  HW1  555   3.668   0.755   2.654
  138  SOL  HW2  556   3.522   0.772   2.692
  139  SOL   OW  557   2.211   3.442   2.765
  139  SOL  HW1  558   2.297   3.485   2.768
  139  SOL  HW2  559   2.187   3.431   2.856
  140  SOL   OW  560   1.403   1.713   2.492
  140  SOL  HW1  561   1.434   1.650   2.427
  140  SOL  HW2  562   1.402   1.664   2.574
  141  SOL   OW  563   3.717   1.323   0.051
  141  SOL  HW1  564   3.692   1.235   0.022
  141  SOL  HW2  565   3.671   1.382  -0.009
  142  SOL   OW  566   2.546   0.680   1.295
  142  SOL  HW1  567   2.467   0.627   1.283
  142  SOL  HW2  568   2.528   0.731   1.374
  143  SOL   OW  569   1.744   0.228   1.207
  143  SOL  HW1  570   1.800   0.289   1.254
  143  SOL  HW2  571   1.768   0.239   1.115
  144  SOL   OW  572   2.995   0.971   2.690
  144  SOL  HW1  573   3.047   0.919   2.751
  144  SOL  HW2  574   2.973   0.911   2.619
  145  SOL   OW  575   0.193   1.494   3.369
  145  SOL  HW1  576   0.152   1.499   3.283
  145  SOL  HW2  577   0.254   1.567   3.370
  146  SOL   OW  578   0.330   1.910   0.063
  146  SOL  HW1  579   0.281   1.945  -0.011
  146  SOL  HW2  580   0.332   1.815   0.048
  147  SOL   OW  581   1.515   3.683   3.061
  147  SOL  HW1  582   1.474   3.635   2.990
  147  SOL  HW2  583   1.606   3.694   3.033
  148  SOL   OW  584   1.900   2.561   3.106
  148  SOL  HW1  585   1.964   2.558   3.177
  148  SOL  HW2  586   1.953   2.556   3.026
  149  SOL   OW  587   2.975   2.043   1.766
  149  SOL  HW1  588   2.923   2.069   1.691
  149  SOL  HW2  589   3.037   1.978   1.731
  150  SOL   OW  590   1.922   0.907   1.062
  150  SOL  HW1  591   1.922   0.871   0.973
  150  SOL  HW2  592   1.930   0.830   1.118
  151  SOL   OW  593   1.058   0.584   1.373
  151  SOL  HW1  594   1.020   0.523   1.437
  151  SOL  HW2  595   0.985   0.640   1.347
  152  SOL   OW  596   3.291   3.169   2.026
  152  SOL  HW1  597   3.360   3.136   1.969
  152  SOL  HW2  598   3.314   3.260   2.042
  153  SOL   OW  599   0.888   0.460   3.235
  153  SOL  HW1  600   0.848   0.441   3.150
  153  SOL  HW2  601   0.970   0.411   3.235
  154  SOL   OW  602   1.596   3.239   2.411
  154  SOL  HW1  603   1.546   3.158   2.411
  154  SOL  HW2  604   1.615   3.256   2.319
  155  SOL   OW  605   0.719   1.776   2.715
  155  SOL  HW1  606   0.767   1.705   2.757
  155  SOL  HW2  607   0.703   1.745   2.626
  156  SOL   OW  608   3.635   0.341   2.323
  156  SOL  HW1  609   3.565   0.353   2.259
  156  SOL  HW2  610   3.601   0.380   2.403
  157  SOL   OW  611   2.920   3.609   0.343
  157  SOL  HW1  612   2.906   3.543   0.275
  157  SOL  HW2  613   3.011   3.638   0.329
  158  SOL   OW  614   3.670   2.309   2.812
  158  SOL  HW1  615   3.679   2.217   2.786
  158  SOL  HW2  616   3.654   2.356   2.730
  159  SOL   OW  617   1.536   2.728   3.168
  159  SOL  HW1  618   1.566   2.754   3.255
  159  SOL  HW2  619   1.486   2.647   3.183
  160  SOL   OW  620   1.484   1.520   0.991
  160  SOL  HW1  621   1.422   1.451   0.967
  160  SOL  HW2  622   1.504   1.564   0.908
  161  SOL   OW  623   0.836   1.855   1.605
  161  SOL  HW1  624   0.790   1.818   1.681
  161  SOL  HW2  625   0.890   1.783   1.573
  162  SOL   OW  626   1.265   0.875   1.127
  162  SOL  HW1  627   1.252   0.879   1.221
  162  SOL  HW2  628   1.360   0.868   1.116
  163  SOL   OW  629   0.041   2.732   2.088
  163  SOL  HW1  630  -0.029   2.671   2.111
  163  SOL  HW2  631   0.084   2.692   2.013
  164  SOL   OW  632   3.742   1.519   3.151
  164  SOL  HW1  633   3.672   1.487   3.208
  164  SOL  HW2  634   3.744   1.614   3.167
  165  SOL   OW  635   2.046   2.075   2.593
  165  SOL  HW1  636   2.091   1.992   2.578
  165  SOL  HW2  637   2.107   2.126   2.646
  166  SOL   OW  638   0.080   1.253   3.066
  166  SOL  HW1  639   0.031   1.285   2.989
  166  SOL  HW2  640   0.106   1.333   3.112
  167  SOL   OW  641   1.243   0.393   2.326
  167  SOL  HW1  642   1.186   0.317   2.311
  167  SOL  HW2  643   1.289   0.405   2.242
  168  SOL   OW  644   3.222   0.200   3.217
  168  SOL  HW1  645   3.149   0.148   3.250
  168  SOL  HW2  646   3.180   0.279   3.181
  169  SOL   OW  647   0.627   1.301   3.605
  169  SOL  HW1  648   0.633   1.207   3.623
  169  SOL  HW2  649   0.714   1.325   3.572
  170  SOL   OW  650   3.577   1.827   2.939
  170  SOL  HW1  651   3.531   1.907   2.909
  170  SOL  HW2  652   3.654   1.822   2.882
  171  SOL   OW  653   0.348   2.278   0.255
  171  SOL  HW1  654   0.424   2.276   0.313
  171  SOL  HW2  655   0.291   2.208   0.288
  172  SOL   OW  656   3.378   2.451   1.255
  172  SOL  HW1  657   3.333   2.399   1.321
  172  SOL  HW2  658   3.442   2.503   1.304
  173  SOL   OW  659   2.179   2.268   2.709
  173  SOL  HW1  660   2.164   2.341   2.649
  173  SOL  HW2  661   2.267   2.283   2.744
  174  SOL   OW  662   0.072   1.821   0.336
  174  SOL  HW1  663   0.139   1.754   0.334
  174  SOL  HW2  664  -0.001   1.784   0.286
  175  SOL   OW  665   3.528   0.502   2.513
  175  SOL  HW1  666   3.506   0.456   2.594
  175  SOL  HW2  667   3.545   0.592   2.541
  176  SOL   OW  668   0.466   2.773   0.897
  176  SOL  HW1  669   0.481   2.867   0.906
  176  SOL  HW2  670   0.478   2.738   0.985
  177  SOL   OW  671   0.263   0.454   2.664
  177  SOL  HW1  672   0.349   0.472   2.626
  177  SOL  HW2  673   0.279   0.442   2.757
  178  SOL   OW  674   3.469   1.836   0.148
  178  SOL  HW1  675   3.471   1.855   0.242
  178  SOL  HW2  676   3.412   1.759   0.141
  179  SOL   OW  677   0.369   1.168   2.955
  179  SOL  HW1  678   0.324   1.173   2.871
  179  SOL  HW2  679   0.301   1.184   3.020
  180  SOL   OW  680   1.252   2.398   3.649
  180  SOL  HW1  681   1.279   2.405   3.740
  180  SOL  HW2  682   1.156   2.400   3.652
  181  SOL   OW  683   1.829   0.577   2.518
  181  SOL  HW1  684   1.753   0.553   2.571
  181  SOL  HW2  685   1.881   0.497   2.511
  182  SOL   OW  686   1.317   1.230   2.179
  182  SOL  HW1  687   1.374   1.269   2.112
  182  SOL  HW2  688   1.272   1.305   2.218
  183  SOL   OW  689   2.907   2.622   2.273
  183  SOL  HW1  690   2.907   2.687   2.343
  183  SOL  HW2  691   2.816   2.617   2.245
  184  SOL   OW  692   2.914   0.055   1.409
  184  SOL  HW1  693   2.858  -0.017   1.438
  184  SOL  HW2  694   2.867   0.093   1.335
  185  SOL   OW  695   1.977   1.364   3.183
  185  SOL  HW1  696   1.933   1.430   3.236
  185  SOL  HW2  697   2.069   1.367   3.211
  186  SOL   OW  698   1.781   3.097   3.022
  186  SOL  HW1  699   1.769   3.017   3.074
  186  SOL  HW2  700   1.875   3.099   3.004
  187  SOL   OW  701   1.290   2.260   3.188
  187  SOL  HW1  702   1.250   2.230   3.270
  187  SOL  HW2  703   1.283   2.185   3.129
  188  SOL   OW  704   0.737   2.891   2.293
  188  SOL  HW1  705   0.822   2.879   2.251
  188  SOL  HW2  706   0.744   2.975   2.339
  189  SOL   OW  707   1.596   0.856   2.536
  189  SOL  HW1  708   1.590   0.839   2.442
  189  SOL  HW2  709   1.637   0.778   2.572
  190  SOL   OW  710   0.285   3.520   1.804
  190  SOL  HW1  711   0.331   3.475   1.876
  190  SOL  HW2  712   0.339   3.597   1.787
  191  SOL   OW  713   0.412   3.701   1.640
  191  SOL  HW1  714   0.492   3.696   1.691
  191  SOL  HW2  715   0.433   3.762   1.569
  192  SOL   OW  716   2.164   0.595   3.479
  192  SOL  HW1  717   2.171   0.585   3.574
  192  SOL  HW2  718   2.091   0.538   3.454
  193  SOL   OW  719   1.258   0.081   2.082
  193  SOL  HW1  720   1.182   0.138   2.093
  193  SOL  HW2  721   1.245   0.012   2.147
  194  SOL   OW  722   3.067   0.158   1.936
  194  SOL  HW1  723   3.131   0.091   1.962
  194  SOL  HW2  724   3.032   0.190   2.019
  195  SOL   OW  725   0.508   0.634   1.061
  195  SOL  HW1  726   0.459   0.553   1.045
  195  SOL  HW2  727   0.596   0.616   1.027
  196  SOL   OW  728   2.426   2.355   0.069
  196  SOL  HW1  729   2.344   2.318   0.037
  196  SOL  HW2  730   2.482   2.279   0.086
  197  SOL   OW  731   1.587   0.831   0.094
  197  SOL  HW1  732   1.611   0.738   0.103
  197  SOL  HW2  733   1.512   0.830   0.034
  198  SOL   OW  734   1.327   2.752   0.020
  198  SOL  HW1  735   1.245   2.742  -0.028
  198  SOL  HW2  736   1.341   2.668   0.063
  199  SOL   OW  737   2.327   2.635   2.497
  199  SOL  HW1  738   2.263   2.571   2.470
  199  SOL  HW2  739   2.381   2.590   2.562
  200  SOL   OW  740   1.980   0.677   3.143
  200  SOL  HW1  741   1.934   0.703   3.064
  200  SOL  HW2  742   1.995   0.759   3.190
  201  SOL   OW  743   1.739   2.601   1.349
  201  SOL  HW1  744   1.810   2.607   1.413
  201  SOL  HW2  745   1.720   2.508   1.343
  202  SOL   OW  746   2.550   3.312   2.622
  202  SOL  HW1  747   2.529   3.272   2.706
  202  SOL  HW2  748   2.537   3.242   2.558
  203  SOL   OW  749   2.291   2.955   3.380
  203  SOL  HW1  750   2.315   2.942   3.472
  203  SOL  HW2  751   2.266   2.867   3.349
  204  SOL   OW  752   0.836   2.210   2.296
  204  SOL  HW1  753   0.768   2.166   2.346
  204  SOL  HW2  754   0.883   2.263   2.360
  205  SOL   OW  755   3.587   0.651   0.144
  205  SOL  HW1  756   3.506   0.640   0.093
  205  SOL  HW2  757   3.601   0.565   0.184
  206  SOL   OW  758   1.056   0.129   1.690
  206  SOL  HW1  759   0.996   0.110   1.763
  206  SOL  HW2  760   1.062   0.224   1.688
  207  SOL   OW  761   2.652   3.518   1.077
  207  SOL  HW1  762   2.747   3.517   1.088
  207  SOL  HW2  763   2.618   3.509   1.166
  208  SOL   OW  764   0.268   2.451   0.497
  208  SOL  HW1  765   0.270   2.518   0.565
  208  SOL  HW2  766   0.225   2.376   0.538
  209  SOL   OW  767   1.334   1.628   3.081
  209  SOL  HW1  768   1.284   1.675   3.147
  209  SOL  HW2  769   1.363   1.695   3.020
  210  SOL   OW  770   1.283   2.946   1.923
  210  SOL  HW1  771   1.281   3.037   1.895
  210  SOL  HW2  772   1.370   2.934   1.963
  211  SOL   OW  773   1.167   1.567   2.873
  211  SOL  HW1  774   1.130   1.479   2.861
  211  SOL  HW2  775   1.251   1.552   2.916
  212  SOL   OW  776   3.405   1.505   0.441
  212  SOL  HW1  777   3.404   1.430   0.382
  212  SOL  HW2  778   3.398   1.466   0.529
  213  SOL   OW  779   0.221   2.966   2.148
  213  SOL  HW1  780   0.244   2.941   2.237
  213  SOL  HW2  781   0.156   2.901   2.120
  214  SOL   OW  782   1.403   1.711   1.185
  214  SOL  HW1  783   1.440   1.634   1.144
  214  SOL  HW2  784   1.360   1.678   1.264
  215  SOL   OW  785   1.669   0.881   1.299
  215  SOL  HW1  786   1.671   0.786   1.289
  215  SOL  HW2  787   1.599   0.897   1.363
  216  SOL   OW  788   1.144   1.842   2.842
  216  SOL  HW1  789   1.085   1.849   2.917
  216  SOL  HW2  790   1.185   1.756   2.852
  217  SOL   OW  791   1.318   1.051   0.584
  217  SOL  HW1  792   1.372   1.007   0.650
  217  SOL  HW2  793   1.309   0.987   0.513
  218  SOL   OW  794   3.222   2.900   0.402
  218  SOL  HW1  795   3.128   2.918   0.396
  218  SOL  HW2  796   3.232   2.813   0.363
  219  SOL   OW  797   3.416   1.279   0.692
  219  SOL  HW1  798   3.494   1.225   0.693
  219  SOL  HW2  799   3.343   1.217   0.700
  220  SOL   OW  800   3.295   1.235   3.536
  220  SOL  HW1  801   3.207   1.216   3.569
  220  SOL  HW2  802   3.285   1.236   3.440
  221  SOL   OW  803   1.099   0.859   0.881
  221  SOL  HW1  804   1.137   0.885   0.965
  221  SOL  HW2  805   1.085   0.764   0.888
  222  SOL   OW  806   3.149   1.596   1.391
  222  SOL  HW1  807   3.193   1.570   1.310
  222  SOL  HW2  808   3.220   1.623   1.449
  223  SOL   OW  809   3.050   2.416   1.219
  223  SOL  HW1  810   3.086   2.381   1.301
  223  SOL  HW2  811   2.973   2.466   1.246
  224  SOL   OW  812   3.231   0.615   3.390
  224  SOL  HW1  813   3.173   0.679   3.430
  224  SOL  HW2  814   3.201   0.530   3.424
  225  SOL   OW  815   1.665   3.321   1.127
  225  SOL  HW1  816   1.637   3.296   1.039
  225  SOL  HW2  817   1.728   3.253   1.152
  226  SOL   OW  818   0.637   2.565   0.419
  226  SOL  HW1  819   0.588   2.590   0.341
  226  SOL  HW2  820   0.612   2.631   0.484
  227  SOL   OW  821   0.886   0.600   0.251
  227  SOL  HW1  822   0.870   0.680   0.200
  227  SOL  HW2  823   0.877   0.529   0.187
  228  SOL   OW  824   1.076   3.584   3.393
  228  SOL  HW1  825   1.160   3.546   3.369
  228  SOL  HW2  826   1.039   3.615   3.310
  229  SOL   OW  827   1.483   2.050   2.760
  229  SOL  HW1  828   1.526   1.991   2.697
  229  SOL  HW2  829   1.515   2.137   2.737
  230  SOL   OW  830   0.570   0.637   2.372
  230  SOL  HW1  831   0.574   0.543   2.390
  230  SOL  HW2  832   0.653   0.671   2.404
  231  SOL   OW  833   3.107   1.527   2.676
  231  SOL  HW1  834   3.058   1.492   2.751
  231  SOL  HW2  835   3.185   1.565   2.715
  232  SOL   OW  836   1.697   2.065   2.431
  232  SOL  HW1  837   1.780   2.049   2.386
  232  SOL  HW2  838   1.681   1.985   2.481
  233  SOL   OW  839   2.602   1.587   1.081
  233  SOL  HW1  840   2.655   1.595   1.001
  233  SOL  HW2  841   2.525   1.538   1.053
  234  SOL   OW  842   2.024   3.052   3.540
  234  SOL  HW1  843   1.989   2.980   3.488
  234  SOL  HW2  844   2.017   3.022   3.631
  235  SOL   OW  845   2.376   1.129   0.505
  235  SOL  HW1  846   2.368   1.179   0.424
  235  SOL  HW2  847   2.421   1.188   0.565
  236  SOL   OW  848   2.849   1.183   2.338
  236  SOL  HW1  849   2.920   1.203   2.277
  236  SOL  HW2  850   2.829   1.091   2.321
  237  SOL   OW  851   1.065   1.588   3.379
  237  SOL  HW1  852   0.979   1.569   3.341
  237  SOL  HW2  853   1.096   1.664   3.330
  238  SOL   OW  854   1.619   3.311   0.832
  238  SOL  HW1  855   1.526   3.331   0.845
  238  SOL  HW2  856   1.640   3.346   0.746
  239  SOL   OW  857   0.320   1.661   3.683
  239  SOL  HW1  858   0.358   1.597   3.623
  239  SOL  HW2  859   0.228   1.667   3.658
  240  SOL   OW  860   1.978   2.069   3.642
  240  SOL  HW1  861   1.906   2.084   3.582
  240  SOL  HW2  862   2.006   1.979   3.624
  241  SOL   OW  863   0.123   1.623   2.715
  241  SOL  HW1  864   0.178   1.656   2.644
  241  SOL  HW2  865   0.126   1.692   2.781
  242  SOL   OW  866   2.197   2.573   0.672
  242  SOL  HW1  867   2.147   2.634   0.726
  242  SOL  HW2  868   2.255   2.529   0.735
  243  SOL   OW  869   0.820   0.547   2.113
  243  SOL  HW1  870   0.868   0.589   2.042
  243  SOL  HW2  871   0.781   0.620   2.162
  244  SOL   OW  872   2.596   1.933   0.974
  244  SOL  HW1  873   2.679   1.919   1.021
  244  SOL  HW2  874   2.534   1.875   1.017
  245  SOL   OW  875   0.701   1.741   0.388
  245  SOL  HW1  876   0.794   1.756   0.404
  245  SOL  HW2  877   0.666   1.826   0.364
  246  SOL   OW  878   1.958   2.826   3.365
  246  SOL  HW1  879   1.882   2.769   3.373
  246  SOL  HW2  880   2.030   2.767   3.344
  247  SOL   OW  881   2.742   1.375   2.772
  247  SOL  HW1  882   2.697   1.291   2.762
  247  SOL  HW2  883   2.796   1.382   2.693
  248  SOL   OW  884   1.602   0.155   2.701
  248  SOL  HW1  885   1.656   0.208   2.642
  248  SOL  HW2  886   1.550   0.219   2.750
  249  SOL   OW  887   1.195   2.193   2.758
  249  SOL  HW1  888   1.243   2.111   2.762
  249  SOL  HW2  889   1.247   2.249   2.700
  250  SOL   OW  890   0.604   0.600   2.729
  250  SOL  HW1  891   0.679   0.616   2.671
  250  SOL  HW2  892   0.562   0.685   2.739
  251  SOL   OW  893   2.005   3.163   2.825
  251  SOL  HW1  894   1.923   3.179   2.778
  251  SOL  HW2  895   2.014   3.237   2.885
  252  SOL   OW  896   1.186   0.972   3.348
  252  SOL  HW1  897   1.177   0.895   3.291
  252  SOL  HW2  898   1.099   0.985   3.386
  253  SOL   OW  899   2.956   3.408   2.573
  253  SOL  HW1  900   2.906   3.371   2.645
  253  SOL  HW2  901   2.960   3.337   2.508
  254  SOL   OW  902   1.417   0.891   2.213
  254  SOL  HW1  903   1.510   0.910   2.227
  254  SOL  HW2  904   1.373   0.934   2.286
  255  SOL   OW  905   2.541   1.265   1.190
  255  SOL  HW1  906   2.482   1.341   1.191
  255  SOL  HW2  907   2.614   1.291   1.247
  256  SOL   OW  908   2.761   2.765   0.930
  256  SOL  HW1  909   2.799   2.741   0.846
  256  SOL  HW2  910   2.709   2.689   0.956
  257  SOL   OW  911   1.566   1.502   3.183
  257  SOL  HW1  912   1.641   1.560   3.195
  257  SOL  HW2  913   1.495   1.560   3.157
  258  SOL   OW  914   0.930   3.383   3.171
  258  SOL  HW1  915   0.846   3.397   3.214
  258  SOL  HW2  916   0.975   3.319   3.227
  259  SOL   OW  917   3.597   0.985   2.199
  259  SOL  HW1  918   3.666   1.050   2.215
  259  SOL  HW2  919   3.538   0.994   2.273
  260  SOL   OW  920   2.325   1.972   3.677
  260  SOL  HW1  921   2.282   2.055   3.697
  260  SOL  HW2  922   2.415   1.983   3.708
  261  SOL   OW  923   3.603   2.291   1.143
  261  SOL  HW1  924   3.638   2.370   1.184
  261  SOL  HW2  925   3.625   2.299   1.051
  262  SOL   OW  926   0.507   2.097   0.514
  262  SOL  HW1  927   0.505   2.145   0.597
  262  SOL  HW2  928   0.529   2.163   0.449
  263  SOL   OW  929   2.850   0.651   1.891
  263  SOL  HW1  930   2.782   0.716   1.909
  263  SOL  HW2  931   2.925   0.680   1.943
  264  SOL   OW  932   2.332   2.341   1.259
  264  SOL  HW1  933   2.345   2.412   1.197
  264  SOL  HW2  934   2.367   2.263   1.215
  265  SOL   OW  935   1.948   0.158   0.969
  265  SOL  HW1  936   1.932   0.124   0.881
  265  SOL  HW2  937   1.979   0.248   0.955
  266  SOL   OW  938   3.436   3.184   2.814
  266  SOL  HW1  939   3.362   3.124   2.824
  266  SOL  HW2  940   3.410   3.243   2.744
  267  SOL   OW  941   0.114   0.678   0.192
  267  SOL  HW1  942   0.158   0.739   0.133
  267  SOL  HW2  943   0.027   0.665   0.153
  268  SOL   OW  944   1.031   1.315   3.756
  268  SOL  HW1  945   0.982   1.382   3.708
  268  SOL  HW2  946   1.096   1.283   3.693
  269  SOL   OW  947   2.920   3.456   0.808
  269  SOL  HW1  948   2.831   3.490   0.820
  269  SOL  HW2  949   2.923   3.378   0.864
  270  SOL   OW  950   3.144   3.664   0.903
  270  SOL  HW1  951   3.079   3.606   0.864
  270  SOL  HW2  952   3.204   3.606   0.950
  271  SOL   OW  953   1.330   1.984   2.482
  271  SOL  HW1  954   1.326   1.975   2.387
  271  SOL  HW2  955   1.342   1.895   2.514
  272  SOL   OW  956   0.729   2.597   2.060
  272  SOL  HW1  957   0.699   2.579   2.149
  272  SOL  HW2  958   0.822   2.620   2.071
  273  SOL   OW  959   2.052   1.309   2.156
  273  SOL  HW1  960   2.029   1.236   2.214
  273  SOL  HW2  961   1.995   1.381   2.183
  274  SOL   OW  962   0.610   2.564   1.368
  274  SOL  HW1  963   0.685   2.586   1.312
  274  SOL  HW2  964   0.536   2.610   1.329
  275  SOL   OW  965   1.836   2.259   3.037
  275  SOL  HW1  966   1.848   2.169   3.067
  275  SOL  HW2  967   1.897   2.310   3.090
  276  SOL   OW  968   1.723   0.016   2.905
  276  SOL  HW1  969   1.700   0.038   2.815
  276  SOL  HW2  970   1.706   0.097   2.954
  277  SOL   OW  971   2.857   0.416   0.959
  277  SOL  HW1  972   2.793   0.457   1.017
  277  SOL  HW2  973   2.938   0.415   1.009
  278  SOL   OW  974   1.044   0.396   3.535
  278  SOL  HW1  975   1.000   0.360   3.458
  278  SOL  HW2  976   0.976   0.446   3.580
  279  SOL   OW  977   3.393   3.394   3.583
  279  SOL  HW1  978   3.317   3.440   3.549
  279  SOL  HW2  979   3.394   3.416   3.677
  280  SOL   OW  980   2.931   3.726   3.693
  280  SOL  HW1  981   2.922   3.657   3.627
  280  SOL  HW2  982   3.020   3.716   3.727
  281  SOL   OW  983   3.274   1.765   2.836
  281  SOL  HW1  984   3.200   1.776   2.895
  281  SOL  HW2  985   3.328   1.697   2.877
  282  SOL   OW  986   2.448   0.226   2.258
  282  SOL  HW1  987   2.537   0.237   2.226
  282  SOL  HW2  988   2.418   0.143   2.220
  283  SOL   OW  989   2.247   3.520   1.209
  283  SOL  HW1  990   2.174   3.467   1.178
  283  SOL  HW2  991   2.270   3.576   1.135
  284  SOL   OW  992   1.178   0.521   2.707
  284  SOL  HW1  993   1.198   0.434   2.672
  284  SOL  HW2  994   1.146   0.504   2.795
  285  SOL   OW  995   2.637   0.784   1.553
  285  SOL  HW1  996   2.664   0.839   1.626
  285  SOL  HW2  997   2.603   0.705   1.594
  286  SOL   OW  998   0.349   1.623   2.267
  286  SOL  HW1  999   0.295   1.687   2.313
  286  SOL  HW2 1000   0.358   1.550   2.329
  287  SOL   OW 1001   2.774   0.610   0.148
  287  SOL  HW1 1002   2.766   0.534   0.090
  287  SOL  HW2 1003   2.814   0.576   0.228
  288  SOL   OW 1004   3.006   0.067   3.304
  288  SOL  HW1 1005   2.936   0.131   3.313
  288  SOL  HW2 1006   2.961  -0.015   3.284
  289  SOL   OW 1007   1.426   2.888   0.460
  289  SOL  HW1 1008   1.426   2.958   0.394
  289  SOL  HW2 1009   1.352   2.833   0.436
  290  SOL   OW 1010   0.930   2.731   1.464
  290  SOL  HW1 1011   0.903   2.663   1.526
  290  SOL  HW2 1012   0.966   2.800   1.519
  291  SOL   OW 1013   1.664   0.653   2.071
  291  SOL  HW1 1014   1.709   0.611   2.144
  291  SOL  HW2 1015   1.730   0.658   2.002
  292  SOL   OW 1016   2.889   1.318   3.195
  292  SOL  HW1 1017   2.799   1.343   3.176
  292  SOL  HW2 1018   2.908   1.246   3.135
  293  SOL   OW 1019   2.850   2.015   0.133
  293  SOL  HW1 1020   2.811   1.953   0.071
  293  SOL  HW2 1021   2.810   1.994   0.217
  294  SOL   OW 1022   2.075   0.115   2.174
  294  SOL  HW1 1023   2.155   0.114   2.227
  294  SOL  HW2 1024   2.040   0.026   2.181
  295  SOL   OW 1025   2.996   3.051   1.161
  295  SOL  HW1 1026   3.013   2.963   1.127
  295  SOL  HW2 1027   2.978   3.037   1.254
  296  SOL   OW 1028   1.802   0.365   0.657
  296  SOL  HW1 1029   1.714   0.398   0.638
  296  SOL  HW2 1030   1.816   0.387   0.749
  297  SOL   OW 1031   1.721   1.738   1.209
  297  SOL  HW1 1032   1.625   1.744   1.214
  297  SOL  HW2 1033   1.740   1.757   1.117
  298  SOL   OW 1034   2.056   0.434   3.006
  298  SOL  HW1 1035   2.027   0.364   3.065
  298  SOL  HW2 1036   2.054   0.513   3.061
  299  SOL   OW 1037   1.613   0.340   3.498
  299  SOL  HW1 1038   1.637   0.425   3.462
  299  SOL  HW2 1039   1.521   0.329   3.474
  300  SOL   OW 1040   2.236   0.230   2.837
  300  SOL  HW1 1041   2.189   0.150   2.814
  300  SOL  HW2 1042   2.173   0.280   2.890
  301  SOL   OW 1043   0.532   0.026   1.005
  301  SOL  HW1 1044   0.608   0.009   0.949
  301  SOL  HW2 1045   0.511   0.118   0.989
  302  SOL   OW 1046   0.584   3.101   0.109
  302  SOL  HW1 1047   0.537   3.183   0.124
  302  SOL  HW2 1048   0.515   3.036   0.097
  303  SOL   OW 1049   2.494   2.343   3.244
  303  SOL  HW1 1050   2.456   2.317   3.327
  303  SOL  HW2 1051   2.574   2.290   3.237
  304  SOL   OW 1052   2.132   0.317   1.750
  304  SOL  HW1 1053   2.084   0.241   1.717
  304  SOL  HW2 1054   2.090   0.392   1.709
  305  SOL   OW 1055   2.778   1.970   0.382
  305  SOL  HW1 1056   2.702   2.024   0.403
  305  SOL  HW2 1057   2.834   1.977   0.459
  306  SOL   OW 1058   1.257   1.450   3.535
  306  SOL  HW1 1059   1.181   1.507   3.528
  306  SOL  HW2 1060   1.222   1.361   3.525
  307  SOL   OW 1061   0.642   2.836   2.718
  307  SOL  HW1 1062   0.589   2.905   2.679
  307  SOL  HW2 1063   0.614   2.755   2.675
  308  SOL   OW 1064   2.881   3.322   3.313
  308  SOL  HW1 1065   2.821   3.307   3.387
  308  SOL  HW2 1066   2.920   3.236   3.297
  309  SOL   OW 1067   1.572   2.930   1.890
  309  SOL  HW1 1068   1.557   2.938   1.984
  309  SOL  HW2 1069   1.537   2.844   1.867
  310  SOL   OW 1070   3.321   2.696   2.457
  310  SOL  HW1 1071   3.312   2.769   2.519
  310  SOL  HW2 1072   3.336   2.737   2.373
  311  SOL   OW 1073   2.561   0.015   1.243
  311  SOL  HW1 1074   2.601  -0.025   1.320
  311  SOL  HW2 1075   2.635   0.052   1.194
  312  SOL   OW 1076   1.202   2.503   2.588
  312  SOL  HW1 1077   1.228   2.466   2.672
  312  SOL  HW2 1078   1.242   2.445   2.523
  313  SOL   OW 1079   1.448   0.902   1.446
  313  SOL  HW1 1080   1.381   0.962   1.480
  313  SOL  HW2 1081   1.495   0.871   1.523
  314  SOL   OW 1082   1.712   1.097   1.139
  314  SOL  HW1 1083   1.780   1.057   1.084
  314  SOL  HW2 1084   1.697   1.033   1.208
  315  SOL   OW 1085   0.583   3.425   2.272
  315  SOL  HW1 1086   0.676   3.413   2.252
  315  SOL  HW2 1087   0.561   3.352   2.329
  316  SOL   OW 1088   1.049   3.285   2.943
  316  SOL  HW1 1089   1.039   3.192   2.962
  316  SOL  HW2 1090   1.020   3.329   3.023
  317  SOL   OW 1091   0.100   0.620   2.397
  317  SOL  HW1 1092   0.011   0.587   2.408
  317  SOL  HW2 1093   0.141   0.558   2.336
  318  SOL   OW 1094   2.385   3.687   1.887
  318  SOL  HW1 1095   2.350   3.770   1.855
  318  SOL  HW2 1096   2.342   3.621   1.833
  319  SOL   OW 1097   3.248   1.094   0.405
  319  SOL  HW1 1098   3.199   1.041   0.342
  319  SOL  HW2 1099   3.224   1.056   0.491
  320  SOL   OW 1100   3.352   0.745   1.794
  320  SOL  HW1 1101   3.342   0.654   1.766
  320  SOL  HW2 1102   3.262   0.774   1.812
  321  SOL   OW 1103   0.214   2.297   2.230
  321  SOL  HW1 1104   0.288   2.334   2.182
  321  SOL  HW2 1105   0.252   2.267   2.313
  322  SOL   OW 1106   0.466   3.010   2.565
  322  SOL  HW1 1107   0.491   3.058   2.486
  322  SOL  HW2 1108   0.396   3.062   2.604
  323  SOL   OW 1109   0.811   2.844   0.439
  323  SOL  HW1 1110   0.770   2.814   0.358
  323  SOL  HW2 1111   0.738   2.878   0.491
  324  SOL   OW 1112   3.019   0.143   2.784
  324  SOL  HW1 1113   2.938   0.105   2.750
  324  SOL  HW2 1114   3.021   0.115   2.876
  325  SOL   OW 1115   0.331   3.064   1.266
  325  SOL  HW1 1116   0.424   3.045   1.278
  325  SOL  HW2 1117   0.301   3.095   1.352
  326  SOL   OW 1118   0.079   3.062   0.469
  326  SOL  HW1 1119   0.133   3.070   0.548
  326  SOL  HW2 1120   0.086   3.148   0.426
  327  SOL   OW 1121   1.334   0.675   1.700
  327  SOL  HW1 1122   1.389   0.632   1.766
  327  SOL  HW2 1123   1.376   0.653   1.617
  328  SOL   OW 1124   3.653   3.676   3.716
  328  SOL  HW1 1125   3.597   3.648   3.644
  328  SOL  HW2 1126   3.690   3.594   3.750
  329  SOL   OW 1127   0.303   0.476   1.151
  329  SOL  HW1 1128   0.232   0.532   1.181
  329  SOL  HW2 1129   0.266   0.427   1.077
  330  SOL   OW 1130   1.743   0.272   2.494
  330  SOL  HW1 1131   1.715   0.355   2.457
  330  SOL  HW2 1132   1.739   0.210   2.421
  331  SOL   OW 1133   1.155   2.888   1.176
  331  SOL  HW1 1134   1.185   2.935   1.253
  331  SOL  HW2 1135   1.116   2.956   1.120
  332  SOL   OW 1136   3.029   1.171   3.608
  332  SOL  HW1 1137   3.009   1.165   3.701
  332  SOL  HW2 1138   2.958   1.225   3.572
  333  SOL   OW 1139   0.142   2.720   0.347
  333  SOL  HW1 1140   0.226   2.677   0.334
  333  SOL  HW2 1141   0.155   2.775   0.425
  334  SOL   OW 1142   2.029   3.355   3.014
  334  SOL  HW1 1143   1.940   3.367   3.049
  334  SOL  HW2 1144   2.086   3.372   3.089
  335  SOL   OW 1145   0.322   0.482   3.263
  335  SOL  HW1 1146   0.318   0.575   3.241
  335  SOL  HW2 1147   0.398   0.475   3.321
  336  SOL   OW 1148   3.020   1.786   2.683
  336  SOL  HW1 1149   2.940   1.740   2.658
  336  SOL  HW2 1150   3.089   1.720   2.676
  337  SOL   OW 1151   0.556   3.591   0.291
  337  SOL  HW1 1152   0.628   3.645   0.259
  337  SOL  HW2 1153   0.482   3.652   0.297
  338  SOL   OW 1154   3.687   2.203   2.264
  338  SOL  HW1 1155   3.663   2.169   2.178
  338  SOL  HW2 1156   3.773   2.243   2.250
  339  SOL   OW 1157   2.922   2.455   2.698
  339  SOL  HW1 1158   2.972   2.519   2.648
  339  SOL  HW2 1159   2.965   2.371   2.679
  340  SOL   OW 1160   2.646   1.197   0.032
  340  SOL  HW1 1161   2.716   1.217  -0.030
  340  SOL  HW2 1162   2.675   1.238   0.114
  341  SOL   OW 1163   3.031   2.186   0.014
  341  SOL  HW1 1164   2.970   2.115   0.032
  341  SOL  HW2 1165   2.989   2.263   0.051
  342  SOL   OW 1166   0.554   0.711   0.482
  342  SOL  HW1 1167   0.468   0.748   0.502
  342  SOL  HW2 1168   0.560   0.716   0.386
  343  SOL   OW 1169   2.721   3.159   0.634
  343  SOL  HW1 1170   2.683   3.181   0.549
  343  SOL  HW2 1171   2.665   3.202   0.698
  344  SOL   OW 1172   2.889   2.999   1.718
  344  SOL  HW1 1173   2.869   3.046   1.799
  344  SOL  HW2 1174   2.832   3.038   1.653
  345  SOL   OW 1175   1.746   2.157   3.502
  345  SOL  HW1 1176   1.728   2.117   3.417
  345  SOL  HW2 1177   1.664   2.150   3.551
  346  SOL   OW 1178   0.700   3.231   2.971
  346  SOL  HW1 1179   0.780   3.281   2.988
  346  SOL  HW2 1180   0.720   3.178   2.894
  347  SOL   OW 1181   3.539   2.895   0.042
  347  SOL  HW1 1182   3.530   2.924   0.133
  347  SOL  HW2 1183   3.617   2.840   0.043
  348  SOL   OW 1184   1.227   0.244   2.645
  348  SOL  HW1 1185   1.286   0.222   2.574
  348  SOL  HW2 1186   1.189   0.160   2.671
  349  SOL   OW 1187   3.264   2.268   2.186
  349  SOL  HW1 1188   3.327   2.245   2.255
  349  SOL  HW2 1189   3.226   2.351   2.216
  350  SOL   OW 1190   1.942   0.246   1.959
  350  SOL  HW1 1191   1.981   0.199   2.033
  350  SOL  HW2 1192   2.016   0.278   1.909
  351  SOL   OW 1193   1.657   2.450   0.539
  351  SOL  HW1 1194   1.653   2.463   0.444
  351  SOL  HW2 1195   1.703   2.367   0.550
  352  SOL   OW 1196   0.562   0.480   0.631
  352  SOL  HW1 1197   0.608   0.486   0.714
  352  SOL  HW2 1198   0.546   0.571   0.605
  353  SOL   OW 1199   2.281   0.611   1.409
  353  SOL  HW1 1200   2.234   0.686   1.372
  353  SOL  HW2 1201   2.211   0.553   1.440
  354  SOL   OW 1202   0.068   1.398   1.684
  354  SOL  HW1 1203  -0.025   1.399   1.707
  354  SOL  HW2 1204   0.074   1.335   1.612
  355  SOL   OW 1205   0.046   2.688   3.479
  355  SOL  HW1 1206   0.121   2.663   3.533
  355  SOL  HW2 1207  -0.008   2.743   3.537
  356  SOL   OW 1208   1.401   0.889   3.644
  356  SOL  HW1 1209   1.327   0.881   3.584
  356  SOL  HW2 1210   1.460   0.951   3.602
  357  SOL   OW 1211   1.582   2.299   2.413
  357  SOL  HW1 1212   1.527   2.285   2.336
  357  SOL  HW2 1213   1.629   2.216   2.424
  358  SOL   OW 1214   3.643   3.435   3.163
  358  SOL  HW1 1215   3.593   3.372   3.215
  358  SOL  HW2 1216   3.631   3.518   3.209
  359  SOL   OW 1217   2.689   1.838   2.782
  359  SOL  HW1 1218   2.657   1.922   2.749
  359  SOL  HW2 1219   2.725   1.794   2.705
  360  SOL   OW 1220   2.476   2.877   1.316
  360  SOL  HW1 1221   2.482   2.903   1.224
  360  SOL  HW2 1222   2.499   2.784   1.316
  361  SOL   OW 1223   1.758   0.612   1.002
  361  SOL  HW1 1224   1.756   0.646   1.091
  361  SOL  HW2 1225   1.738   0.688   0.947
  362  SOL   OW 1226   2.332   0.429   0.655
  362  SOL  HW1 1227   2.348   0.488   0.581
  362  SOL  HW2 1228   2.249   0.387   0.635
  363  SOL   OW 1229   2.079   3.055   1.057
  363  SOL  HW1 1230   2.016   2.988   1.030
  363  SOL  HW2 1231   2.152   3.045   0.996
  364  SOL   OW 1232   1.494   2.956   2.140
  364  SOL  HW1 1233   1.444   3.009   2.202
  364  SOL  HW2 1234   1.566   2.921   2.192
  365  SOL   OW 1235   1.278   3.677   2.308
  365  SOL  HW1 1236   1.369   3.661   2.333
  365  SOL  HW2 1237   1.226   3.631   2.374
  366  SOL   OW 1238   0.163   1.804   2.910
  366  SOL  HW1 1239   0.175   1.896   2.932
  366  SOL  HW2 1240   0.235   1.759   2.955
  367  SOL   OW 1241   1.136   1.470   0.215
  367  SOL  HW1 1242   1.200   1.407   0.249
  367  SOL  HW2 1243   1.098   1.426   0.139
  368  SOL   OW 1244   1.928   1.443   2.370
  368  SOL  HW1 1245   2.002   1.455   2.430
  368  SOL  HW2 1246   1.874   1.377   2.413
  369  SOL   OW 1247   2.776   0.843   3.608
  369  SOL  HW1 1248   2.699   0.868   3.658
  369  SOL  HW2 1249   2.785   0.912   3.542
  370  SOL   OW 1250   3.692   0.899   1.086
  370  SOL  HW1 1251   3.778   0.884   1.046
  370  SOL  HW2 1252   3.647   0.956   1.024
  371  SOL   OW 1253   2.661   0.837   1.950
  371  SOL  HW1 1254   2.630   0.883   1.872
  371  SOL  HW2 1255   2.598   0.766   1.962
  372  SOL   OW 1256   2.842   0.297   2.394
  372  SOL  HW1 1257   2.868   0.307   2.486
  372  SOL  HW2 1258   2.784   0.221   2.394
  373  SOL   OW 1259   3.197   0.481   1.560
  373  SOL  HW1 1260   3.154   0.441   1.485
  373  SOL  HW2 1261   3.133   0.543   1.594
  374  SOL   OW 1262   1.423   0.547   0.935
  374  SOL  HW1 1263   1.391   0.633   0.908
  374  SOL  HW2 1264   1.516   0.548   0.912
  375  SOL   OW 1265   0.946   2.277   1.236
  375  SOL  HW1 1266   0.993   2.194   1.236
  375  SOL  HW2 1267   0.867   2.261   1.288
  376  SOL   OW 1268   2.152   3.192   2.223
  376  SOL  HW1 1269   2.122   3.251   2.292
  376  SOL  HW2 1270   2.113   3.227   2.143
  377  SOL   OW 1271   1.489   1.605   3.547
  377  SOL  HW1 1272   1.416   1.546   3.527
  377  SOL  HW2 1273   1.455   1.662   3.616
  378  SOL   OW 1274   1.841   1.462   2.976
  378  SOL  HW1 1275   1.874   1.427   3.059
  378  SOL  HW2 1276   1.819   1.385   2.925
  379  SOL   OW 1277   1.083   1.112   2.064
  379  SOL  HW1 1278   1.164   1.160   2.084
  379  SOL  HW2 1279   1.039   1.102   2.148
  380  SOL   OW 1280   0.990   3.284   2.303
  380  SOL  HW1 1281   0.917   3.250   2.355
  380  SOL  HW2 1282   0.975   3.379   2.299
  381  SOL   OW 1283   0.159   0.205   1.059
  381  SOL  HW1 1284   0.207   0.179   1.137
  381  SOL  HW2 1285   0.075   0.159   1.066
  382  SOL   OW 1286   2.642   2.361   0.327
  382  SOL  HW1 1287   2.550   2.386   0.337
  382  SOL  HW2 1288   2.686   2.442   0.299
  383  SOL   OW 1289   1.634   0.924   1.750
  383  SOL  HW1 1290   1.653   0.837   1.714
  383  SOL  HW2 1291   1.685   0.928   1.831
  384  SOL   OW 1292   3.245   2.048   1.067
  384  SOL  HW1 1293   3.284   2.125   1.026
  384  SOL  HW2 1294   3.209   2.079   1.150
  385  SOL   OW 1295   0.923   0.139   1.181
  385  SOL  HW1 1296   1.007   0.186   1.178
  385  SOL  HW2 1297   0.932   0.078   1.254
  386  SOL   OW 1298   2.902   0.561   2.337
  386  SOL  HW1 1299   2.994   0.534   2.335
  386  SOL  HW2 1300   2.853   0.479   2.335
  387  SOL   OW 1301   1.310   0.071   1.537
  387  SOL  HW1 1302   1.266  -0.002   1.582
  387  SOL  HW2 1303   1.344   0.126   1.608
  388  SOL   OW 1304   2.384   3.026   0.391
  388  SOL  HW1 1305   2.327   3.071   0.329
  388  SOL  HW2 1306   2.351   2.936   0.393
  389  SOL   OW 1307   1.551   2.716   1.504
  389  SOL  HW1 1308   1.646   2.717   1.519
  389  SOL  HW2 1309   1.534   2.632   1.462
  390  SOL   OW 1310   2.098   0.456   1.209
  390  SOL  HW1 1311   2.162   0.483   1.144
  390  SOL  HW2 1312   2.144   0.392   1.263
  391  SOL   OW 1313   1.186   3.336   1.955
  391  SOL  HW1 1314   1.178   3.277   2.030
  391  SOL  HW2 1315   1.278   3.362   1.955
  392  SOL   OW 1316   0.463   1.236   0.810
  392  SOL  HW1 1317   0.383   1.261   0.857
  392  SOL  HW2 1318   0.434   1.222   0.720
  393  SOL   OW 1319   0.042   2.766   0.080
  393  SOL  HW1 1320   0.070   2.857   0.084
  393  SOL  HW2 1321   0.042   2.737   0.171
  394  SOL   OW 1322   0.633   2.840   2.991
  394  SOL  HW1 1323   0.559   2.814   3.046
  394  SOL  HW2 1324   0.602   2.824   2.901
  395  SOL   OW 1325   1.647   0.632   3.151
  395  SOL  HW1 1326   1.564   0.667   3.184
  395  SOL  HW2 1327   1.708   0.641   3.224
  396  SOL   OW 1328   0.349   1.704   2.574
  396  SOL  HW1 1329   0.365   1.761   2.649
  396  SOL  HW2 1330   0.418   1.727   2.512
  397  SOL   OW 1331   3.298   3.234   1.432
  397  SOL  HW1 1332   3.306   3.150   1.477
  397  SOL  HW2 1333   3.245   3.288   1.491
  398  SOL   OW 1334   3.482   3.177   0.483
  398  SOL  HW1 1335   3.393   3.199   0.512
  398  SOL  HW2 1336   3.536   3.249   0.516
  399  SOL   OW 1337   1.951   0.218   3.164
  399  SOL  HW1 1338   1.968   0.125   3.146
  399  SOL  HW2 1339   1.855   0.224   3.168
  400  SOL   OW 1340   1.274   2.033   1.737
  400  SOL  HW1 1341   1.216   2.095   1.694
  400  SOL  HW2 1342   1.216   1.973   1.784
  401  SOL   OW 1343   1.374   1.322   0.834
  401  SOL  HW1 1344   1.319   1.261   0.883
  401  SOL  HW2 1345   1.339   1.322   0.745
  402  SOL   OW 1346   2.556   0.142   0.160
  402  SOL  HW1 1347   2.464   0.120   0.143
  402  SOL  HW2 1348   2.605   0.065   0.133
  403  SOL   OW 1349   3.466   0.308   2.096
  403  SOL  HW1 1350   3.381   0.321   2.138
  403  SOL  HW2 1351   3.462   0.220   2.059
  404  SOL   OW 1352   3.212   3.561   0.303
  404  SOL  HW1 1353   3.290   3.607   0.335
  404  SOL  HW2 1354   3.222   3.472   0.335
  405  SOL   OW 1355   1.978   1.337   0.968
  405  SOL  HW1 1356   1.883   1.332   0.957
  405  SOL  HW2 1357   2.007   1.246   0.956
  406  SOL   OW 1358   1.591   3.339   0.521
  406  SOL  HW1 1359   1.661   3.283   0.487
  406  SOL  HW2 1360   1.522   3.277   0.547
  407  SOL   OW 1361   0.257   2.819   0.561
  407  SOL  HW1 1362   0.291   2.902   0.529
  407  SOL  HW2 1363   0.231   2.837   0.652
  408  SOL   OW 1364   2.697   2.946   2.251
  408  SOL  HW1 1365   2.657   2.890   2.184
  408  SOL  HW2 1366   2.790   2.949   2.226
  409  SOL   OW 1367   1.868   2.798   3.721
  409  SOL  HW1 1368   1.777   2.782   3.699
  409  SOL  HW2 1369   1.912   2.715   3.703
  410  SOL   OW 1370   0.444   2.952   3.599
  410  SOL  HW1 1371   0.437   2.885   3.531
  410  SOL  HW2 1372   0.393   2.918   3.672
  411  SOL   OW 1373   2.534   1.173   2.808
  411  SOL  HW1 1374   2.587   1.126   2.743
  411  SOL  HW2 1375   2.501   1.104   2.866
  412  SOL   OW 1376   2.731   1.623   0.850
  412  SOL  HW1 1377   2.721   1.675   0.771
  412  SOL  HW2 1378   2.776   1.544   0.821
  413  SOL   OW 1379   0.653   2.278   0.349
  413  SOL  HW1 1380   0.708   2.258   0.425
  413  SOL  HW2 1381   0.629   2.370   0.360
  414  SOL   OW 1382   0.159   1.099   0.182
  414  SOL  HW1 1383   0.091   1.041   0.218
  414  SOL  HW2 1384   0.110   1.166   0.134
  415  SOL   OW 1385   0.636   1.702   2.469
  415  SOL  HW1 1386   0.633   1.760   2.392
  415  SOL  HW2 1387   0.632   1.614   2.433
  416  SOL   OW 1388   3.586   3.298   1.432
  416  SOL  HW1 1389   3.636   3.228   1.476
  416  SOL  HW2 1390   3.495   3.276   1.451
  417  SOL   OW 1391   1.204   0.196   0.721
  417  SOL  HW1 1392   1.114   0.176   0.746
  417  SOL  HW2 1393   1.236   0.255   0.789
  418  SOL   OW 1394   3.597   3.286   2.253
  418  SOL  HW1 1395   3.560   3.263   2.339
  418  SOL  HW2 1396   3.592   3.205   2.202
  419  SOL   OW 1397   1.084   3.596   1.596
  419  SOL  HW1 1398   1.070   3.689   1.616
  419  SOL  HW2 1399   1.038   3.549   1.665
  420  SOL   OW 1400   0.927   2.018   0.520
  420  SOL  HW1 1401   0.954   1.982   0.435
  420  SOL  HW2 1402   0.954   1.952   0.584
  421  SOL   OW 1403   2.072   3.675   1.400
  421  SOL  HW1 1404   2.026   3.690   1.317
  421  SOL  HW2 1405   2.024   3.602   1.441
  422  SOL   OW 1406   2.995   0.333   0.252
  422  SOL  HW1 1407   3.023   0.401   0.313
  422  SOL  HW2 1408   2.934   0.279   0.303
  423  SOL   OW 1409   0.832   0.411   0.047
  423  SOL  HW1 1410   0.841   0.337   0.106
  423  SOL  HW2 1411   0.774   0.380  -0.022
  424  SOL   OW 1412   1.981   3.262   2.536
  424  SOL  HW1 1413   1.926   3.312   2.475
  424  SOL  HW2 1414   1.961   3.170   2.516
  425  SOL   OW 1415   2.663   0.373   0.057
  425  SOL  HW1 1416   2.690   0.349  -0.031
  425  SOL  HW2 1417   2.635   0.291   0.097
  426  SOL   OW 1418   1.674   0.657   0.401
  426  SOL  HW1 1419   1.725   0.580   0.377
  426  SOL  HW2 1420   1.584   0.635   0.376
  427  SOL   OW 1421   0.965   2.220   0.297
  427  SOL  HW1 1422   0.900   2.255   0.358
  427  SOL  HW2 1423   0.915   2.159   0.243
  428  SOL   OW 1424   1.987   2.445   0.489
  428  SOL  HW1 1425   1.950   2.465   0.575
  428  SOL  HW2 1426   2.080   2.462   0.498
  429  SOL   OW 1427   2.519   3.182   0.035
  429  SOL  HW1 1428   2.576   3.225   0.099
  429  SOL  HW2 1429   2.465   3.253  -0.000
  430  SOL   OW 1430   1.807   3.095   1.141
  430  SOL  HW1 1431   1.794   3.062   1.052
  430  SOL  HW2 1432   1.787   3.021   1.197
  431  SOL   OW 1433   0.290   2.564   2.122
  431  SOL  HW1 1434   0.373   2.597   2.086
  431  SOL  HW2 1435   0.266   2.628   2.189
  432  SOL   OW 1436   2.205   0.292   1.448
  432  SOL  HW1 1437   2.241   0.205   1.431
  432  SOL  HW2 1438   2.215   0.305   1.542
  433  SOL   OW 1439   0.775   2.877   0.746
  433  SOL  HW1 1440   0.783   2.828   0.827
  433  SOL  HW2 1441   0.859   2.863   0.701
  434  SOL   OW 1442   3.134   2.071   3.518
  434  SOL  HW1 1443   3.097   2.089   3.605
  434  SOL  HW2 1444   3.075   2.116   3.458
  435  SOL   OW 1445   1.378   3.112   1.700
  435  SOL  HW1 1446   1.394   3.020   1.721
  435  SOL  HW2 1447   1.460   3.143   1.662
  436  SOL   OW 1448   2.375   0.060   3.615
  436  SOL  HW1 1449   2.320   0.044   3.691
  436  SOL  HW2 1450   2.373   0.155   3.603
  437  SOL   OW 1451   1.429   1.001   1.923
  437  SOL  HW1 1452   1.446   0.993   2.017
  437  SOL  HW2 1453   1.503   0.955   1.882
  438  SOL   OW 1454   2.598   0.566   0.694
  438  SOL  HW1 1455   2.599   0.473   0.717
  438  SOL  HW2 1456   2.548   0.571   0.613
  439  SOL   OW 1457   0.886   1.588   0.748
  439  SOL  HW1 1458   0.842   1.508   0.775
  439  SOL  HW2 1459   0.908   1.573   0.656
  440  SOL   OW 1460   3.712   0.335   3.276
  440  SOL  HW1 1461   3.632   0.387   3.278
  440  SOL  HW2 1462   3.686   0.251   3.240
  441  SOL   OW 1463   2.694   3.612   0.716
  441  SOL  HW1 1464   2.599   3.612   0.722
  441  SOL  HW2 1465   2.712   3.638   0.625
  442  SOL   OW 1466   2.232   1.631   3.385
  442  SOL  HW1 1467   2.196   1.547   3.359
  442  SOL  HW2 1468   2.320   1.610   3.418
  443  SOL   OW 1469   2.797   0.206   0.442
  443  SOL  HW1 1470   2.741   0.241   0.512
  443  SOL  HW2 1471   2.736   0.159   0.384
  444  SOL   OW 1472   3.739   1.405   2.835
  444  SOL  HW1 1473   3.655   1.389   2.793
  444  SOL  HW2 1474   3.774   1.482   2.789
  445  SOL   OW 1475   2.170   2.728   0.980
  445  SOL  HW1 1476   2.168   2.633   0.996
  445  SOL  HW2 1477   2.099   2.762   1.035
  446  SOL   OW 1478   2.690   3.537   2.812
  446  SOL  HW1 1479   2.641   3.470   2.762
  446  SOL  HW2 1480   2.674   3.515   2.903
  447  SOL   OW 1481   1.335   0.787   2.624
  447  SOL  HW1 1482   1.430   0.794   2.613
  447  SOL  HW2 1483   1.321   0.704   2.668
  448  SOL   OW 1484   0.047   1.651   0.665
  448  SOL  HW1 1485   0.136   1.627   0.639
  448  SOL  HW2 1486  -0.009   1.605   0.602
  449  SOL   OW 1487   2.626   1.249   1.943
  449  SOL  HW1 1488   2.605   1.230   2.034
  449  SOL  HW2 1489   2.541   1.247   1.898
  450  SOL   OW 1490   3.312   2.947   2.884
  450  SOL  HW1 1491   3.221   2.920   2.875
  450  SOL  HW2 1492   3.359   2.865   2.904
  451  SOL   OW 1493   1.749   3.523   0.653
  451  SOL  HW1 1494   1.705   3.608   0.655
  451  SOL  HW2 1495   1.702   3.473   0.586
  452  SOL   OW 1496   3.686   3.609   0.803
  452  SOL  HW1 1497   3.719   3.697   0.782
  452  SOL  HW2 1498   3.704   3.558   0.724
  453  SOL   OW 1499   3.658   2.910   2.870
  453  SOL  HW1 1500   3.594   2.839   2.875
  453  SOL  HW2 1501   3.628   2.974   2.934
  454  SOL   OW 1502   1.962   3.435   3.417
  454  SOL  HW1 1503   1.875   3.401   3.396
  454  SOL  HW2 1504   2.019   3.403   3.348
  455  SOL   OW 1505   3.669   0.030   2.213
  455  SOL  HW1 1506   3.733   0.101   2.205
  455  SOL  HW2 1507   3.615   0.038   2.135
  456  SOL   OW 1508   3.035   0.737   3.708
  456  SOL  HW1 1509   2.940   0.751   3.706
  456  SOL  HW2 1510   3.044   0.643   3.726
  457  SOL   OW 1511   0.676   1.660   0.101
  457  SOL  HW1 1512   0.713   1.649   0.188
  457  SOL  HW2 1513   0.606   1.725   0.112
  458  SOL   OW 1514   2.288   3.182   0.197
  458  SOL  HW1 1515   2.197   3.174   0.170
  458  SOL  HW2 1516   2.313   3.272   0.173
  459  SOL   OW 1517   2.820   0.215   3.587
  459  SOL  HW1 1518   2.866   0.138   3.619
  459  SOL  HW2 1519   2.753   0.180   3.527
  460  SOL   OW 1520   0.138   3.759   2.815
  460  SOL  HW1 1521   0.095   3.673   2.813
  460  SOL  HW2 1522   0.232   3.738   2.814
  461  SOL   OW 1523   3.186   2.627   0.587
  461  SOL  HW1 1524   3.138   2.598   0.509
  461  SOL  HW2 1525   3.166   2.561   0.653
  462  SOL   OW 1526   2.461   2.295   2.032
  462  SOL  HW1 1527   2.452   2.285   1.938
  462  SOL  HW2 1528   2.440   2.387   2.049
  463  SOL   OW 1529   0.914   2.333   2.074
  463  SOL  HW1 1530   0.914   2.278   2.152
  463  SOL  HW2 1531   0.882   2.275   2.004
  464  SOL   OW 1532  -0.009   1.335   0.901
  464  SOL  HW1 1533   0.015   1.428   0.903
  464  SOL  HW2 1534   0.017   1.307   0.813
  465  SOL   OW 1535   0.514   0.872   2.250
  465  SOL  HW1 1536   0.512   0.781   2.281
  465  SOL  HW2 1537   0.434   0.881   2.198
  466  SOL   OW 1538   1.559   1.653   0.717
  466  SOL  HW1 1539   1.564   1.657   0.621
  466  SOL  HW2 1540   1.630   1.595   0.742
  467  SOL   OW 1541   1.369   3.412   0.319
  467  SOL  HW1 1542   1.403   3.328   0.350
  467  SOL  HW2 1543   1.398   3.417   0.228
  468  SOL   OW 1544   0.200   0.610   0.671
  468  SOL  HW1 1545   0.226   0.649   0.588
  468  SOL  HW2 1546   0.106   0.595   0.662
  469  SOL   OW 1547   1.251   2.307   2.134
  469  SOL  HW1 1548   1.164   2.274   2.112
  469  SOL  HW2 1549   1.302   2.229   2.155
  470  SOL   OW 1550   2.945   0.546   0.441
  470  SOL  HW1 1551   2.925   0.492   0.517
  470  SOL  HW2 1552   3.006   0.612   0.473
  471  SOL   OW 1553   2.071   2.523   1.304
  471  SOL  HW1 1554   2.059   2.528   1.399
  471  SOL  HW2 1555   2.141   2.458   1.292
  472  SOL   OW 1556   0.815   0.712   2.493
  472  SOL  HW1 1557   0.879   0.641   2.479
  472  SOL  HW2 1558   0.869   0.787   2.519
  473  SOL   OW 1559   2.949   3.408   0.177
  473  SOL  HW1 1560   2.998   3.370   0.250
  473  SOL  HW2 1561   3.001   3.388   0.100
  474  SOL   OW 1562   3.619   2.753   1.118
  474  SOL  HW1 1563   3.633   2.802   1.037
  474  SOL  HW2 1564   3.559   2.682   1.094
  475  SOL   OW 1565   2.851   2.341   1.817
  475  SOL  HW1 1566   2.857   2.270   1.754
  475  SOL  HW2 1567   2.833   2.419   1.764
  476  SOL   OW 1568   2.041   3.177   3.275
  476  SOL  HW1 1569   2.080   3.152   3.191
  476  SOL  HW2 1570   2.064   3.106   3.334
  477  SOL   OW 1571   1.754   1.624   3.660
  477  SOL  HW1 1572   1.665   1.591   3.649
  477  SOL  HW2 1573   1.767   1.626   3.755
  478  SOL   OW 1574   0.545   2.765   1.964
  478  SOL  HW1 1575   0.623   2.751   2.019
  478  SOL  HW2 1576   0.539   2.685   1.912
  479  SOL   OW 1577   0.622   0.151   3.302
  479  SOL  HW1 1578   0.537   0.171   3.264
  479  SOL  HW2 1579   0.606   0.076   3.360
  480  SOL   OW 1580   2.649   3.606   1.875
  480  SOL  HW1 1581   2.557   3.608   1.900
  480  SOL  HW2 1582   2.667   3.694   1.841
  481  SOL   OW 1583   1.345   0.873   0.358
  481  SOL  HW1 1584   1.346   0.781   0.331
  481  SOL  HW2 1585   1.272   0.912   0.310
  482  SOL   OW 1586   3.034   3.288   2.871
  482  SOL  HW1 1587   3.099   3.306   2.803
  482  SOL  HW2 1588   3.048   3.197   2.895
  483  SOL   OW 1589   3.414   3.515   0.774
  483  SOL  HW1 1590   3.510   3.512   0.777
  483  SOL  HW2 1591   3.387   3.483   0.860
  484  SOL   OW 1592   0.567   3.129   2.107
  484  SOL  HW1 1593   0.645   3.166   2.066
  484  SOL  HW2 1594   0.594   3.043   2.139
  485  SOL   OW 1595   1.813   2.571   2.663
  485  SOL  HW1 1596   1.805   2.489   2.710
  485  SOL  HW2 1597   1.761   2.633   2.714
  486  SOL   OW 1598   0.441   0.196   1.477
  486  SOL  HW1 1599   0.471   0.287   1.482
  486  SOL  HW2 1600   0.503   0.153   1.418
  487  SOL   OW 1601   0.781   3.453   0.949
  487  SOL  HW1 1602   0.770   3.445   1.044
  487  SOL  HW2 1603   0.766   3.365   0.916
  488  SOL   OW 1604   2.085   0.943   3.459
  488  SOL  HW1 1605   2.017   0.983   3.404
  488  SOL  HW2 1606   2.036   0.902   3.531
  489  SOL   OW 1607   3.307   2.016   1.611
  489  SOL  HW1 1608   3.397   2.009   1.642
  489  SOL  HW2 1609   3.315   2.021   1.516
  490  SOL   OW 1610   1.608   0.964   0.329
  490  SOL  HW1 1611   1.613   0.908   0.251
  490  SOL  HW2 1612   1.520   0.948   0.364
  491  SOL   OW 1613   1.846   3.645   1.738
  491  SOL  HW1 1614   1.834   3.641   1.643
  491  SOL  HW2 1615   1.763   3.614   1.774
  492  SOL   OW 1616   3.556   3.589   0.392
  492  SOL  HW1 1617   3.483   3.625   0.443
  492  SOL  HW2 1618   3.620   3.561   0.459
  493  SOL   OW 1619   3.699   0.025   1.401
  493  SOL  HW1 1620   3.787   0.001   1.369
  493  SOL  HW2 1621   3.695   0.120   1.390
  494  SOL   OW 1622   1.039   0.722   2.208
  494  SOL  HW1 1623   1.044   0.779   2.285
  494  SOL  HW2 1624   1.032   0.781   2.134
  495  SOL   OW 1625   3.193   2.910   3.613
  495  SOL  HW1 1626   3.181   2.978   3.681
  495  SOL  HW2 1627   3.191   2.828   3.661
  496  SOL   OW 1628   0.714   2.899   1.766
  496  SOL  HW1 1629   0.665   2.851   1.833
  496  SOL  HW2 1630   0.676   2.870   1.683
  497  SOL   OW 1631   3.566   3.066   3.552
  497  SOL  HW1 1632   3.560   3.005   3.626
  497  SOL  HW2 1633   3.499   3.034   3.491
  498  SOL   OW 1634   0.579   1.951   3.527
  498  SOL  HW1 1635   0.613   2.017   3.588
  498  SOL  HW2 1636   0.582   1.869   3.577
  499  SOL   OW 1637   0.870   1.816   3.619
  499  SOL  HW1 1638   0.843   1.842   3.530
  499  SOL  HW2 1639   0.915   1.733   3.607
  500  SOL   OW 1640   3.215   0.127   2.572
  500  SOL  HW1 1641   3.162   0.158   2.646
  500  SOL  HW2 1642   3.219   0.032   2.583
  501  SOL   OW 1643   2.659   3.665   0.017
  501  SOL  HW1 1644   2.661   3.577   0.055
  501  SOL  HW2 1645   2.751   3.686   0.000
  502  SOL   OW 1646   2.380   3.303   3.079
  502  SOL  HW1 1647   2.309   3.366   3.095
  502  SOL  HW2 1648   2.391   3.259   3.163
  503  SOL   OW 1649   1.143   1.565   0.969
  503  SOL  HW1 1650   1.206   1.530   0.905
  503  SOL  HW2 1651   1.062   1.576   0.919
  504  SOL   OW 1652   3.016   2.161   2.587
  504  SOL  HW1 1653   2.968   2.211   2.521
  504  SOL  HW2 1654   2.995   2.070   2.567
  505  SOL   OW 1655   0.572   0.509   3.396
  505  SOL  HW1 1656   0.626   0.435   3.373
  505  SOL  HW2 1657   0.632   0.584   3.398
  506  SOL   OW 1658   2.043   3.027   0.100
  506  SOL  HW1 1659   1.965   3.083   0.100
  506  SOL  HW2 1660   2.020   2.954   0.158
  507  SOL   OW 1661   1.773   3.481   2.843
  507  SOL  HW1 1662   1.755   3.574   2.836
  507  SOL  HW2 1663   1.846   3.466   2.784
  508  SOL   OW 1664   1.084   2.659   2.790
  508  SOL  HW1 1665   1.159   2.667   2.849
  508  SOL  HW2 1666   1.120   2.619   2.711
  509  SOL   OW 1667   1.955   1.446   3.502
  509  SOL  HW1 1668   1.893   1.455   3.573
  509  SOL  HW2 1669   2.018   1.517   3.515
  510  SOL   OW 1670   0.498   0.991   3.425
  510  SOL  HW1 1671   0.575   1.044   3.447
  510  SOL  HW2 1672   0.464   0.962   3.510
  511  SOL   OW 1673   1.612   1.924   1.420
  511  SOL  HW1 1674   1.553   1.857   1.455
  511  SOL  HW2 1675   1.672   1.943   1.492
  512  SOL   OW 1676   1.383   1.757   0.086
  512  SOL  HW1 1677   1.401   1.804   0.168
  512  SOL  HW2 1678   1.399   1.665   0.107
  513  SOL   OW 1679   3.327   0.904   3.360
  513  SOL  HW1 1680   3.404   0.860   3.397
  513  SOL  HW2 1681   3.273   0.927   3.436
  514  SOL   OW 1682   2.859   0.121   0.787
  514  SOL  HW1 1683   2.785   0.061   0.798
  514  SOL  HW2 1684   2.821   0.208   0.791
  515  SOL   OW 1685   1.735   0.004   3.641
  515  SOL  HW1 1686   1.758   0.027   3.551
  515  SOL  HW2 1687   1.781   0.067   3.696
  516  SOL   OW 1688   0.992   1.848   0.326
  516  SOL  HW1 1689   1.023   1.827   0.238
  516  SOL  HW2 1690   1.010   1.770   0.378
  517  SOL   OW 1691   0.238   1.196   3.459
  517  SOL  HW1 1692   0.167   1.153   3.413
  517  SOL  HW2 1693   0.240   1.285   3.423
  518  SOL   OW 1694   1.955   2.999   2.458
  518  SOL  HW1 1695   1.978   2.927   2.516
  518  SOL  HW2 1696   1.916   2.957   2.381
  519  SOL   OW 1697   0.130   0.020   3.545
  519  SOL  HW1 1698   0.181   0.099   3.525
  519  SOL  HW2 1699   0.053   0.053   3.591
  520  SOL   OW 1700   1.293   1.120   1.501
  520  SOL  HW1 1701   1.280   1.158   1.587
  520  SOL  HW2 1702   1.219   1.061   1.489
  521  SOL   OW 1703   1.283   3.455   3.594
  521  SOL  HW1 1704   1.191   3.463   3.619
  521  SOL  HW2 1705   1.317   3.545   3.599
  522  SOL   OW 1706   1.771   0.673   2.926
  522  SOL  HW1 1707   1.755   0.763   2.895
  522  SOL  HW2 1708   1.719   0.665   3.005
  523  SOL   OW 1709   3.010   2.554   0.381
  523  SOL  HW1 1710   2.980   2.480   0.433
  523  SOL  HW2 1711   2.933   2.611   0.374
  524  SOL   OW 1712   2.947   3.059   3.483
  524  SOL  HW1 1713   2.950   2.966   3.508
  524  SOL  HW2 1714   2.888   3.099   3.547
  525  SOL   OW 1715   0.795   3.683   1.505
  525  SOL  HW1 1716   0.764   3.628   1.577
  525  SOL  HW2 1717   0.883   3.650   1.486
  526  SOL   OW 1718   0.336   2.335   1.256
  526  SOL  HW1 1719   0.371   2.249   1.232
  526  SOL  HW2 1720   0.410   2.394   1.250
  527  SOL   OW 1721   3.244   1.366   1.151
  527  SOL  HW1 1722   3.317   1.306   1.132
  527  SOL  HW2 1723   3.278   1.453   1.127
  528  SOL   OW 1724   0.518   0.903   0.979
  528  SOL  HW1 1725   0.545   0.811   0.979
  528  SOL  HW2 1726   0.540   0.935   0.891
  529  SOL   OW 1727   0.605   0.866   3.165
  529  SOL  HW1 1728   0.619   0.944   3.110
  529  SOL  HW2 1729   0.523   0.884   3.211
  530  SOL   OW 1730   0.568   2.214   2.822
  530  SOL  HW1 1731   0.479   2.223   2.855
  530  SOL  HW2 1732   0.558   2.194   2.729
  531  SOL   OW 1733   0.943   2.569   0.521
  531  SOL  HW1 1734   0.860   2.526   0.502
  531  SOL  HW2 1735   0.944   2.577   0.616
  532  SOL   OW 1736   2.969   3.291   1.550
  532  SOL  HW1 1737   3.029   3.240   1.604
  532  SOL  HW2 1738   3.026   3.347   1.497
  533  SOL   OW 1739   3.335   0.191   1.770
  533  SOL  HW1 1740   3.387   0.111   1.759
  533  SOL  HW2 1741   3.246   0.164   1.746
  534  SOL   OW 1742   0.888   1.210   0.362
  534  SOL  HW1 1743   0.980   1.235   0.364
  534  SOL  HW2 1744   0.887   1.126   0.316
  535  SOL   OW 1745   3.377   0.625   3.653
  535  SOL  HW1 1746   3.306   0.682   3.683
  535  SOL  HW2 1747   3.418   0.674   3.582
  536  SOL   OW 1748   2.939   0.417   3.718
  536  SOL  HW1 1749   2.892   0.354   3.664
  536  SOL  HW2 1750   2.974   0.366   3.791
  537  SOL   OW 1751   0.917   2.592   1.826
  537  SOL  HW1 1752   0.856   2.575   1.755
  537  SOL  HW2 1753   0.883   2.541   1.900
  538  SOL   OW 1754   1.112   2.067   1.187
  538  SOL  HW1 1755   1.093   1.977   1.215
  538  SOL  HW2 1756   1.205   2.066   1.166
  539  SOL   OW 1757   3.298   2.622   0.963
  539  SOL  HW1 1758   3.253   2.547   1.001
  539  SOL  HW2 1759   3.374   2.584   0.918
  540  SOL   OW 1760   2.176   0.642   0.907
  540  SOL  HW1 1761   2.254   0.651   0.852
  540  SOL  HW2 1762   2.193   0.700   0.982
  541  SOL   OW 1763   3.002   3.734   3.015
  541  SOL  HW1 1764   3.095   3.741   3.036
  541  SOL  HW2 1765   2.967   3.677   3.083
  542  SOL   OW 1766   1.449   0.955   3.042
  542  SOL  HW1 1767   1.404   0.976   2.961
  542  SOL  HW2 1768   1.521   1.017   3.047
  543  SOL   OW 1769   2.191   2.878   0.767
  543  SOL  HW1 1770   2.098   2.901   0.769
  543  SOL  HW2 1771   2.201   2.811   0.834
  544  SOL   OW 1772   2.913   3.224   2.380
  544  SOL  HW1 1773   2.832   3.275   2.378
  544  SOL  HW2 1774   2.946   3.229   2.291
  545  SOL   OW 1775   1.771   2.808   3.062
  545  SOL  HW1 1776   1.689   2.770   3.094
  545  SOL  HW2 1777   1.836   2.739   3.075
  546  SOL   OW 1778   2.580   2.434   2.469
  546  SOL  HW1 1779   2.650   2.372   2.448
  546  SOL  HW2 1780   2.507   2.379   2.499
  547  SOL   OW 1781   3.372   0.587   2.826
  547  SOL  HW1 1782   3.444   0.527   2.807
  547  SOL  HW2 1783   3.347   0.622   2.741
  548  SOL   OW 1784   0.458   3.199   2.362
  548  SOL  HW1 1785   0.479   3.169   2.274
  548  SOL  HW2 1786   0.373   3.243   2.353
  549  SOL   OW 1787   1.065   2.467   0.298
  549  SOL  HW1 1788   1.022   2.386   0.323
  549  SOL  HW2 1789   1.039   2.530   0.365
  550  SOL   OW 1790   3.456   3.397   2.054
  550  SOL  HW1 1791   3.511   3.362   2.125
  550  SOL  HW2 1792   3.429   3.483   2.085
  551  SOL   OW 1793   1.830   1.186   3.450
  551  SOL  HW1 1794   1.781   1.227   3.379
  551  SOL  HW2 1795   1.894   1.252   3.476
  552  SOL   OW 1796   1.423   1.001   0.913
  552  SOL  HW1 1797   1.447   1.064   0.981
  552  SOL  HW2 1798   1.330   1.015   0.899
  553  SOL   OW 1799   0.362   3.536   3.145
  553  SOL  HW1 1800   0.314   3.456   3.126
  553  SOL  HW2 1801   0.361   3.585   3.062
  554  SOL   OW 1802   0.946   0.174   0.903
  554  SOL  HW1 1803   0.945   0.154   0.997
  554  SOL  HW2 1804   0.887   0.110   0.865
  555  SOL   OW 1805   0.770   2.002   2.511
  555  SOL  HW1 1806   0.752   1.909   2.525
  555  SOL  HW2 1807   0.859   2.015   2.544
  556  SOL   OW 1808   2.060   1.263   2.632
  556  SOL  HW1 1809   2.120   1.326   2.593
  556  SOL  HW2 1810   2.110   1.181   2.635
  557  SOL   OW 1811   0.349   1.090   3.687
  557  SOL  HW1 1812   0.282   1.123   3.746
  557  SOL  HW2 1813   0.315   1.107   3.599
  558  SOL   OW 1814   0.473   1.839   1.457
  558  SOL  HW1 1815   0.484   1.872   1.368
  558  SOL  HW2 1816   0.542   1.774   1.467
  559  SOL   OW 1817   0.555   3.166   1.773
  559  SOL  HW1 1818   0.485   3.164   1.708
  559  SOL  HW2 1819   0.563   3.075   1.803
  560  SOL   OW 1820   3.331   2.931   2.604
  560  SOL  HW1 1821   3.263   2.973   2.656
  560  SOL  HW2 1822   3.374   3.003   2.558
  561  SOL   OW 1823   3.120   2.067   0.356
  561  SOL  HW1 1824   3.085   2.014   0.428
  561  SOL  HW2 1825   3.062   2.048   0.282
  562  SOL   OW 1826   1.171   0.121   1.321
  562  SOL  HW1 1827   1.214   0.097   1.403
  562  SOL  HW2 1828   1.226   0.082   1.252
  563  SOL   OW 1829   1.275   1.932   0.547
  563  SOL  HW1 1830   1.206   1.879   0.587
  563  SOL  HW2 1831   1.250   2.023   0.567
  564  SOL   OW 1832   3.242   0.456   1.859
  564  SOL  HW1 1833   3.214   0.489   1.773
  564  SOL  HW2 1834   3.294   0.378   1.838
  565  SOL   OW 1835   0.063   0.721   0.462
  565  SOL  HW1 1836   0.076   0.731   0.368
  565  SOL  HW2 1837  -0.031   0.712   0.472
  566  SOL   OW 1838   0.861   0.934   0.435
  566  SOL  HW1 1839   0.818   0.858   0.475
  566  SOL  HW2 1840   0.933   0.955   0.495
  567  SOL   OW 1841   1.302   1.055   2.814
  567  SOL  HW1 1842   1.362   1.127   2.796
  567  SOL  HW2 1843   1.224   1.074   2.763
  568  SOL   OW 1844   2.290   1.212   0.991
  568  SOL  HW1 1845   2.345   1.137   0.969
  568  SOL  HW2 1846   2.201   1.180   0.976
  569  SOL   OW 1847   3.357   3.609   1.873
  569  SOL  HW1 1848   3.333   3.542   1.810
  569  SOL  HW2 1849   3.284   3.612   1.935
  570  SOL   OW 1850   0.150   2.233   1.675
  570  SOL  HW1 1851   0.181   2.312   1.719
  570  SOL  HW2 1852   0.120   2.176   1.746
  571  SOL   OW 1853   3.096   0.061   1.671
  571  SOL  HW1 1854   3.072   0.100   1.755
  571  SOL  HW2 1855   3.018   0.013   1.644
  572  SOL   OW 1856   3.662   0.768   2.988
  572  SOL  HW1 1857   3.687   0.762   3.080
  572  SOL  HW2 1858   3.590   0.707   2.979
  573  SOL   OW 1859   2.693   2.098   2.776
  573  SOL  HW1 1860   2.766   2.114   2.836
  573  SOL  HW2 1861   2.736   2.079   2.692
  574  SOL   OW 1862   3.186   3.548   2.883
  574  SOL  HW1 1863   3.120   3.487   2.917
  574  SOL  HW2 1864   3.266   3.527   2.931
  575  SOL   OW 1865   3.662   0.458   0.284
  575  SOL  HW1 1866   3.636   0.387   0.343
  575  SOL  HW2 1867   3.746   0.488   0.320
  576  SOL   OW 1868   3.266   0.707   2.544
  576  SOL  HW1 1869   3.304   0.765   2.610
  576  SOL  HW2 1870   3.305   0.735   2.461
  577  SOL   OW 1871   2.115   0.884   0.400
  577  SOL  HW1 1872   2.092   0.836   0.479
  577  SOL  HW2 1873   2.034   0.882   0.348
  578  SOL   OW 1874  -0.005   3.015   3.319
  578  SOL  HW1 1875  -0.045   3.033   3.404
  578  SOL  HW2 1876   0.068   3.076   3.314
  579  SOL   OW 1877   1.066   0.109   3.562
  579  SOL  HW1 1878   1.003   0.144   3.499
  579  SOL  HW2 1879   1.102   0.031   3.518
  580  SOL   OW 1880   1.154   0.602   0.291
  580  SOL  HW1 1881   1.059   0.600   0.300
  580  SOL  HW2 1882   1.169   0.594   0.197
  581  SOL   OW 1883   2.450   3.550   2.527
  581  SOL  HW1 1884   2.491   3.468   2.555
  581  SOL  HW2 1885   2.461   3.608   2.602
  582  SOL   OW 1886   2.008   2.098   0.689
  582  SOL  HW1 1887   2.068   2.067   0.622
  582  SOL  HW2 1888   2.021   2.038   0.762
  583  SOL   OW 1889   2.816   1.637   0.094
  583  SOL  HW1 1890   2.879   1.599   0.033
  583  SOL  HW2 1891   2.771   1.704   0.043
  584  SOL   OW 1892   1.253   1.211   2.590
  584  SOL  HW1 1893   1.167   1.233   2.554
  584  SOL  HW2 1894   1.306   1.290   2.577
  585  SOL   OW 1895   1.612   0.775   0.854
  585  SOL  HW1 1896   1.612   0.840   0.784
  585  SOL  HW2 1897   1.572   0.820   0.928
  586  SOL   OW 1898   1.371   3.191   3.006
  586  SOL  HW1 1899   1.422   3.226   2.933
  586  SOL  HW2 1900   1.429   3.196   3.082
  587  SOL   OW 1901   3.138   3.242   3.483
  587  SOL  HW1 1902   3.075   3.172   3.496
  587  SOL  HW2 1903   3.209   3.202   3.432
  588  SOL   OW 1904   0.339   2.489   2.711
  588  SOL  HW1 1905   0.288   2.567   2.732
  588  SOL  HW2 1906   0.328   2.432   2.786
  589  SOL   OW 1907   1.473   0.428   2.153
  589  SOL  HW1 1908   1.561   0.446   2.185
  589  SOL  HW2 1909   1.433   0.514   2.141
  590  SOL   OW 1910   0.175   3.393   1.123
  590  SOL  HW1 1911   0.094   3.437   1.098
  590  SOL  HW2 1912   0.224   3.458   1.172
  591  SOL   OW 1913   1.514   1.948   1.904
  591  SOL  HW1 1914   1.563   2.029   1.894
  591  SOL  HW2 1915   1.427   1.967   1.866
  592  SOL   OW 1916   0.530   0.593   3.095
  592  SOL  HW1 1917   0.587   0.663   3.126
  592  SOL  HW2 1918   0.590   0.527   3.061
  593  SOL   OW 1919   0.937   1.443   2.197
  593  SOL  HW1 1920   0.910   1.475   2.111
  593  SOL  HW2 1921   0.857   1.442   2.249
  594  SOL   OW 1922   0.346   0.450   1.654
  594  SOL  HW1 1923   0.342   0.525   1.713
  594  SOL  HW2 1924   0.256   0.438   1.625
  595  SOL   OW 1925   0.556   0.188   0.681
  595  SOL  HW1 1926   0.561   0.283   0.667
  595  SOL  HW2 1927   0.635   0.153   0.639
  596  SOL   OW 1928   2.170   3.300   1.579
  596  SOL  HW1 1929   2.093   3.274   1.528
  596  SOL  HW2 1930   2.244   3.264   1.530
  597  SOL   OW 1931   2.271   1.725   1.397
  597  SOL  HW1 1932   2.209   1.782   1.353
  597  SOL  HW2 1933   2.245   1.728   1.489
  598  SOL   OW 1934   2.578   0.899   0.444
  598  SOL  HW1 1935   2.672   0.885   0.436
  598  SOL  HW2 1936   2.561   0.895   0.538
  599  SOL   OW 1937   2.493   0.898   3.298
  599  SOL  HW1 1938   2.446   0.817   3.277
  599  SOL  HW2 1939   2.425   0.957   3.331
  600  SOL   OW 1940   3.606   2.596   1.345
  600  SOL  HW1 1941   3.681   2.538   1.362
  600  SOL  HW2 1942   3.644   2.674   1.305
  601  SOL   OW 1943   0.197   3.310   3.090
  601  SOL  HW1 1944   0.116   3.284   3.048
  601  SOL  HW2 1945   0.262   3.248   3.057
  602  SOL   OW 1946   1.859   0.934  -0.003
  602  SOL  HW1 1947   1.782   0.958   0.049
  602  SOL  HW2 1948   1.907   0.873   0.053
  603  SOL   OW 1949   3.732   2.646   0.750
  603  SOL  HW1 1950   3.800   2.703   0.713
  603  SOL  HW2 1951   3.650   2.686   0.722
  604  SOL   OW 1952   1.096   2.718   3.571
  604  SOL  HW1 1953   1.041   2.647   3.539
  604  SOL  HW2 1954   1.037   2.776   3.619
  605  SOL   OW 1955   2.531   2.110   0.365
  605  SOL  HW1 1956   2.494   2.097   0.278
  605  SOL  HW2 1957   2.580   2.192   0.358
  606  SOL   OW 1958   2.737   1.406   1.688
  606  SOL  HW1 1959   2.745   1.401   1.783
  606  SOL  HW2 1960   2.725   1.499   1.669
  607  SOL   OW 1961   3.051   0.511   1.217
  607  SOL  HW1 1962   2.998   0.440   1.254
  607  SOL  HW2 1963   3.140   0.476   1.214
  608  SOL   OW 1964   0.673   0.964   0.211
  608  SOL  HW1 1965   0.582   0.987   0.229
  608  SOL  HW2 1966   0.714   0.962   0.297
  609  SOL   OW 1967   0.434   2.745   3.384
  609  SOL  HW1 1968   0.413   2.749   3.291
  609  SOL  HW2 1969   0.358   2.703   3.424
  610  SOL   OW 1970   0.312   0.745   3.153
  610  SOL  HW1 1971   0.278   0.799   3.082
  610  SOL  HW2 1972   0.393   0.708   3.119
  611  SOL   OW 1973   2.291   2.372   3.012
  611  SOL  HW1 1974   2.211   2.420   3.036
  611  SOL  HW2 1975   2.318   2.328   3.092
  612  SOL   OW 1976   1.101   1.848   1.815
  612  SOL  HW1 1977   1.053   1.831   1.733
  612  SOL  HW2 1978   1.176   1.788   1.812
  613  SOL   OW 1979   3.449   2.707   2.906
  613  SOL  HW1 1980   3.454   2.686   2.813
  613  SOL  HW2 1981   3.476   2.626   2.951
  614  SOL   OW 1982   1.973   0.815   0.825
  614  SOL  HW1 1983   2.048   0.759   0.843
  614  SOL  HW2 1984   1.974   0.827   0.730
  615  SOL   OW 1985   1.030   0.509   2.456
  615  SOL  HW1 1986   1.088   0.558   2.515
  615  SOL  HW2 1987   1.084   0.490   2.380
  616  SOL   OW 1988   1.627   1.544   2.404
  616  SOL  HW1 1989   1.668   1.471   2.450
  616  SOL  HW2 1990   1.675   1.550   2.321
  617  SOL   OW 1991   0.116   0.548   1.547
  617  SOL  HW1 1992   0.068   0.496   1.611
  617  SOL  HW2 1993   0.049   0.596   1.500
  618  SOL   OW 1994   1.379   2.218   0.622
  618  SOL  HW1 1995   1.373   2.165   0.701
  618  SOL  HW2 1996   1.333   2.300   0.644
  619  SOL   OW 1997   0.187   1.399   0.240
  619  SOL  HW1 1998   0.118   1.352   0.193
  619  SOL  HW2 1999   0.267   1.377   0.193
  620  SOL   OW 2000   2.675   3.671   0.411
  620  SOL  HW1 2001   2.616   3.618   0.358
  620  SOL  HW2 2002   2.753   3.684   0.356
  621  SOL   OW 2003   0.423   1.736   3.049
  621  SOL  HW1 2004   0.517   1.724   3.067
  621  SOL  HW2 2005   0.385   1.752   3.135
  622  SOL   OW 2006   3.074   3.064   0.771
  622  SOL  HW1 2007   2.987   3.035   0.799
  622  SOL  HW2 2008   3.135   3.014   0.824
  623  SOL   OW 2009   3.230   1.315   0.136
  623  SOL  HW1 2010   3.308   1.349   0.180
  623  SOL  HW2 2011   3.230   1.222   0.155
  624  SOL   OW 2012   0.170   0.459   3.683
  624  SOL  HW1 2013   0.155   0.488   3.772
  624  SOL  HW2 2014   0.087   0.475   3.638
  625  SOL   OW 2015   3.594   2.038   0.471
  625  SOL  HW1 2016   3.633   2.039   0.384
  625  SOL  HW2 2017   3.543   1.958   0.475
  626  SOL   OW 2018   2.552   2.232   3.515
  626  SOL  HW1 2019   2.461   2.262   3.517
  626  SOL  HW2 2020   2.546   2.141   3.487
  627  SOL   OW 2021   2.722   1.538   0.447
  627  SOL  HW1 2022   2.666   1.612   0.424
  627  SOL  HW2 2023   2.705   1.522   0.540
  628  SOL   OW 2024   2.915   1.911   1.392
  628  SOL  HW1 2025   2.948   1.831   1.433
  628  SOL  HW2 2026   2.850   1.945   1.454
  629  SOL   OW 2027   1.830   1.583   3.305
  629  SOL  HW1 2028   1.802   1.671   3.330
  629  SOL  HW2 2029   1.824   1.533   3.386
  630  SOL   OW 2030   0.944   1.191   1.671
  630  SOL  HW1 2031   0.995   1.272   1.674
  630  SOL  HW2 2032   0.904   1.185   1.759
  631  SOL   OW 2033   0.206   2.046   3.042
  631  SOL  HW1 2034   0.134   2.104   3.066
  631  SOL  HW2 2035   0.242   2.016   3.126
  632  SOL   OW 2036   3.046   0.771   2.081
  632  SOL  HW1 2037   2.975   0.828   2.109
  632  SOL  HW2 2038   3.126   0.822   2.098
  633  SOL   OW 2039   1.062   1.772   2.404
  633  SOL  HW1 2040   1.106   1.837   2.460
  633  SOL  HW2 2041   1.132   1.712   2.379
  634  SOL   OW 2042   1.416   1.158   1.201
  634  SOL  HW1 2043   1.388   1.133   1.289
  634  SOL  HW2 2044   1.352   1.224   1.174
  635  SOL   OW 2045   3.721   0.811   3.604
  635  SOL  HW1 2046   3.794   0.851   3.557
  635  SOL  HW2 2047   3.646   0.822   3.545
  636  SOL   OW 2048   2.062   2.815   0.270
  636  SOL  HW1 2049   2.129   2.823   0.338
  636  SOL  HW2 2050   2.103   2.763   0.202
  637  SOL   OW 2051   1.023   3.075   0.684
  637  SOL  HW1 2052   1.082   3.085   0.609
  637  SOL  HW2 2053   0.970   2.998   0.662
  638  SOL   OW 2054   1.066   2.126   3.003
  638  SOL  HW1 2055   1.123   2.152   2.930
  638  SOL  HW2 2056   1.003   2.066   2.964
  639  SOL   OW 2057   2.157   1.730   0.902
  639  SOL  HW1 2058   2.119   1.808   0.943
  639  SOL  HW2 2059   2.138   1.659   0.963
  640  SOL   OW 2060   3.321   3.503   1.042
  640  SOL  HW1 2061   3.352   3.565   1.108
  640  SOL  HW2 2062   3.318   3.419   1.088
  641  SOL   OW 2063   3.392   3.225   2.503
  641  SOL  HW1 2064   3.461   3.282   2.539
  641  SOL  HW2 2065   3.343   3.282   2.443
  642  SOL   OW 2066   3.631   2.884   0.633
  642  SOL  HW1 2067   3.662   2.932   0.556
  642  SOL  HW2 2068   3.651   2.942   0.707
  643  SOL   OW 2069   1.304   2.516   0.186
  643  SOL  HW1 2070   1.226   2.492   0.236
  643  SOL  HW2 2071   1.377   2.501   0.247
  644  SOL   OW 2072   0.838   0.877   1.781
  644  SOL  HW1 2073   0.805   0.916   1.862
  644  SOL  HW2 2074   0.933   0.868   1.796
  645  SOL   OW 2075   3.106   0.392   3.468
  645  SOL  HW1 2076   3.128   0.321   3.527
  645  SOL  HW2 2077   3.033   0.359   3.416
  646  SOL   OW 2078   1.957   2.803   2.109
  646  SOL  HW1 2079   1.937   2.896   2.122
  646  SOL  HW2 2080   1.965   2.794   2.014
  647  SOL   OW 2081   2.695   3.253   1.654
  647  SOL  HW1 2082   2.772   3.305   1.635
  647  SOL  HW2 2083   2.697   3.181   1.591
  648  SOL   OW 2084   2.072   1.407   0.072
  648  SOL  HW1 2085   2.085   1.491   0.028
  648  SOL  HW2 2086   2.100   1.423   0.162
  649  SOL   OW 2087   1.313   0.304   3.500
  649  SOL  HW1 2088   1.222   0.276   3.511
  649  SOL  HW2 2089   1.307   0.400   3.491
  650  SOL   OW 2090   1.664   0.696   1.608
  650  SOL  HW1 2091   1.591   0.670   1.551
  650  SOL  HW2 2092   1.696   0.613   1.644
  651  SOL   OW 2093   2.492   0.360   2.920
  651  SOL  HW1 2094   2.409   0.314   2.914
  651  SOL  HW2 2095   2.547   0.321   2.851
  652  SOL   OW 2096   1.320   2.022   3.057
  652  SOL  HW1 2097   1.344   1.935   3.025
  652  SOL  HW2 2098   1.228   2.014   3.081
  653  SOL   OW 2099   0.507   2.891   1.186
  653  SOL  HW1 2100   0.471   2.803   1.179
  653  SOL  HW2 2101   0.597   2.877   1.216
  654  SOL   OW 2102   3.726   1.727   0.030
  654  SOL  HW1 2103   3.762   1.777  -0.043
  654  SOL  HW2 2104   3.641   1.767   0.048
  655  SOL   OW 2105   2.562   2.597   3.555
  655  SOL  HW1 2106   2.527   2.681   3.585
  655  SOL  HW2 2107   2.604   2.560   3.633
  656  SOL   OW 2108   1.615   1.791   3.139
  656  SOL  HW1 2109   1.649   1.810   3.226
  656  SOL  HW2 2110   1.595   1.877   3.102
  657  SOL   OW 2111   3.208   2.271   0.494
  657  SOL  HW1 2112   3.277   2.329   0.460
  657  SOL  HW2 2113   3.217   2.191   0.443
  658  SOL   OW 2114   1.436   1.805   2.898
  658  SOL  HW1 2115   1.449   1.883   2.843
  658  SOL  HW2 2116   1.521   1.761   2.897
  659  SOL   OW 2117   3.406   3.589   3.095
  659  SOL  HW1 2118   3.482   3.609   3.150
  659  SOL  HW2 2119   3.348   3.541   3.153
  660  SOL   OW 2120   2.318   0.332   2.580
  660  SOL  HW1 2121   2.322   0.241   2.550
  660  SOL  HW2 2122   2.300   0.325   2.674
  661  SOL   OW 2123   2.953   1.140   3.000
  661  SOL  HW1 2124   3.026   1.082   3.022
  661  SOL  HW2 2125   2.902   1.091   2.936
  662  SOL   OW 2126   2.588   2.770   0.573
  662  SOL  HW1 2127   2.679   2.801   0.577
  662  SOL  HW2 2128   2.538   2.837   0.619
  663  SOL   OW 2129   3.755   3.523   2.047
  663  SOL  HW1 2130   3.715   3.455   1.993
  663  SOL  HW2 2131   3.715   3.512   2.134
  664  SOL   OW 2132   2.467   0.784   2.216
  664  SOL  HW1 2133   2.551   0.738   2.220
  664  SOL  HW2 2134   2.450   0.812   2.306
  665  SOL   OW 2135   3.470   1.600   2.972
  665  SOL  HW1 2136   3.529   1.675   2.962
  665  SOL  HW2 2137   3.521   1.535   3.020
  666  SOL   OW 2138   3.034   3.196   2.119
  666  SOL  HW1 2139   3.016   3.258   2.049
  666  SOL  HW2 2140   3.123   3.167   2.104
  667  SOL   OW 2141   3.275   1.029   0.983
  667  SOL  HW1 2142   3.247   1.114   0.948
  667  SOL  HW2 2143   3.369   1.040   0.999
  668  SOL   OW 2144   2.630   3.148   3.429
  668  SOL  HW1 2145   2.652   3.056   3.420
  668  SOL  HW2 2146   2.571   3.167   3.355
  669  SOL   OW 2147   1.835   1.172   0.315
  669  SOL  HW1 2148   1.782   1.101   0.351
  669  SOL  HW2 2149   1.914   1.174   0.369
  670  SOL   OW 2150   1.714   0.396   2.892
  670  SOL  HW1 2151   1.795   0.351   2.867
  670  SOL  HW2 2152   1.738   0.488   2.893
  671  SOL   OW 2153   1.494   1.387   1.750
  671  SOL  HW1 2154   1.513   1.459   1.689
  671  SOL  HW2 2155   1.530   1.309   1.707
  672  SOL   OW 2156   3.502   1.616   0.720
  672  SOL  HW1 2157   3.486   1.664   0.638
  672  SOL  HW2 2158   3.597   1.615   0.728
  673  SOL   OW 2159   2.213   0.662   0.221
  673  SOL  HW1 2160   2.286   0.722   0.210
  673  SOL  HW2 2161   2.173   0.688   0.303
  674  SOL   OW 2162   1.747   3.231   2.694
  674  SOL  HW1 2163   1.721   3.308   2.643
  674  SOL  HW2 2164   1.722   3.252   2.784
  675  SOL   OW 2165   2.324   0.729   0.680
  675  SOL  HW1 2166   2.405   0.768   0.712
  675  SOL  HW2 2167   2.344   0.701   0.590
  676  SOL   OW 2168   1.351   3.193   0.651
  676  SOL  HW1 2169   1.345   3.140   0.730
  676  SOL  HW2 2170   1.303   3.273   0.671
  677  SOL   OW 2171   3.009   2.252   0.968
  677  SOL  HW1 2172   3.065   2.188   0.923
  677  SOL  HW2 2173   3.065   2.291   1.034
  678  SOL   OW 2174   2.779   2.306   2.103
  678  SOL  HW1 2175   2.871   2.284   2.092
  678  SOL  HW2 2176   2.753   2.345   2.019
  679  SOL   OW 2177   0.644   3.395   3.247
  679  SOL  HW1 2178   0.550   3.411   3.245
  679  SOL  HW2 2179   0.671   3.422   3.335
  680  SOL   OW 2180   3.414   0.762   2.298
  680  SOL  HW1 2181   3.420   0.696   2.228
  680  SOL  HW2 2182   3.492   0.815   2.288
  681  SOL   OW 2183   2.798   3.072   1.977
  681  SOL  HW1 2184   2.785   3.165   1.998
  681  SOL  HW2 2185   2.842   3.036   2.053
  682  SOL   OW 2186   0.125   2.185   0.624
  682  SOL  HW1 2187   0.061   2.114   0.633
  682  SOL  HW2 2188   0.139   2.192   0.529
  683  SOL   OW 2189   1.201   1.488   1.725
  683  SOL  HW1 2190   1.203   1.460   1.633
  683  SOL  HW2 2191   1.261   1.428   1.770
  684  SOL   OW 2192   2.662   0.976   3.107
  684  SOL  HW1 2193   2.601   0.950   3.177
  684  SOL  HW2 2194   2.613   0.959   3.026
  685  SOL   OW 2195   2.330   3.185   0.929
  685  SOL  HW1 2196   2.285   3.230   0.857
  685  SOL  HW2 2197   2.423   3.205   0.914
  686  SOL   OW 2198   2.675   2.733   2.867
  686  SOL  HW1 2199   2.692   2.652   2.916
  686  SOL  HW2 2200   2.673   2.801   2.934
  687  SOL   OW 2201   3.009   1.473   3.403
  687  SOL  HW1 2202   3.104   1.482   3.396
  687  SOL  HW2 2203   2.984   1.426   3.323
  688  SOL   OW 2204   2.159   2.899   1.313
  688  SOL  HW1 2205   2.136   2.960   1.243
  688  SOL  HW2 2206   2.247   2.869   1.291
  689  SOL   OW 2207   0.294   2.491   0.813
  689  SOL  HW1 2208   0.386   2.490   0.840
  689  SOL  HW2 2209   0.247   2.458   0.889
  690  SOL   OW 2210   0.801   3.150   2.429
  690  SOL  HW1 2211   0.721   3.202   2.432
  690  SOL  HW2 2212   0.833   3.148   2.519
  691  SOL   OW 2213   0.857   0.643   1.046
  691  SOL  HW1 2214   0.834   0.685   0.964
  691  SOL  HW2 2215   0.922   0.578   1.022
  692  SOL   OW 2216   3.404   3.730   3.502
  692  SOL  HW1 2217   3.361   3.644   3.500
  692  SOL  HW2 2218   3.337   3.789   3.535
  693  SOL   OW 2219   0.664   2.779   3.549
  693  SOL  HW1 2220   0.592   2.752   3.492
  693  SOL  HW2 2221   0.673   2.873   3.535
  694  SOL   OW 2222   0.201   3.526   2.565
  694  SOL  HW1 2223   0.161   3.444   2.538
  694  SOL  HW2 2224   0.179   3.534   2.658
  695  SOL   OW 2225   2.318   2.721   1.665
  695  SOL  HW1 2226   2.340   2.808   1.699
  695  SOL  HW2 2227   2.394   2.667   1.688
  696  SOL   OW 2228   1.706   0.071   1.445
  696  SOL  HW1 2229   1.714   0.088   1.351
  696  SOL  HW2 2230   1.653  -0.009   1.450
  697  SOL   OW 2231  -0.007   2.361   0.801
  697  SOL  HW1 2232   0.052   2.319   0.738
  697  SOL  HW2 2233   0.006   2.455   0.787
  698  SOL   OW 2234   2.376   2.329   0.778
  698  SOL  HW1 2235   2.364   2.291   0.865
  698  SOL  HW2 2236   2.451   2.283   0.742
  699  SOL   OW 2237   0.018   3.411   0.024
  699  SOL  HW1 2238   0.025   3.335  -0.034
  699  SOL  HW2 2239   0.107   3.448   0.026
  700  SOL   OW 2240   0.612   3.128   3.232
  700  SOL  HW1 2241   0.633   3.054   3.175
  700  SOL  HW2 2242   0.628   3.205   3.178
  701  SOL   OW 2243   3.329   2.887   1.298
  701  SOL  HW1 2244   3.422   2.867   1.285
  701  SOL  HW2 2245   3.300   2.919   1.213
  702  SOL   OW 2246   2.396   2.529   1.065
  702  SOL  HW1 2247   2.407   2.579   0.985
  702  SOL  HW2 2248   2.470   2.554   1.120
  703  SOL   OW 2249   3.251   0.701   0.178
  703  SOL  HW1 2250   3.267   0.719   0.271
  703  SOL  HW2 2251   3.209   0.780   0.145
  704  SOL   OW 2252   1.303   3.366   1.012
  704  SOL  HW1 2253   1.218   3.323   1.002
  704  SOL  HW2 2254   1.317   3.412   0.930
  705  SOL   OW 2255   2.232   1.370   3.224
  705  SOL  HW1 2256   2.257   1.279   3.241
  705  SOL  HW2 2257   2.252   1.384   3.132
  706  SOL   OW 2258   2.199   0.991   0.666
  706  SOL  HW1 2259   2.229   0.900   0.667
  706  SOL  HW2 2260   2.265   1.038   0.616
  707  SOL   OW 2261   2.068   2.503   2.544
  707  SOL  HW1 2262   2.071   2.558   2.465
  707  SOL  HW2 2263   1.977   2.510   2.574
  708  SOL   OW 2264   3.111   0.499   2.096
  708  SOL  HW1 2265   3.123   0.594   2.093
  708  SOL  HW2 2266   3.144   0.468   2.012
  709  SOL   OW 2267   2.241   1.420   2.414
  709  SOL  HW1 2268   2.290   1.499   2.436
  709  SOL  HW2 2269   2.226   1.426   2.320
  710  SOL   OW 2270   2.306   2.858   3.012
  710  SOL  HW1 2271   2.319   2.838   2.919
  710  SOL  HW2 2272   2.317   2.773   3.056
  711  SOL   OW 2273   2.937   2.335   0.480
  711  SOL  HW1 2274   3.007   2.271   0.492
  711  SOL  HW2 2275   2.881   2.324   0.557
  712  SOL   OW 2276   2.601   2.887   1.932
  712  SOL  HW1 2277   2.575   2.831   1.859
  712  SOL  HW2 2278   2.694   2.905   1.916
  713  SOL   OW 2279   1.528   1.872   2.224
  713  SOL  HW1 2280   1.596   1.805   2.226
  713  SOL  HW2 2281   1.502   1.882   2.316
  714  SOL   OW 2282   1.341   3.564   1.896
  714  SOL  HW1 2283   1.260   3.528   1.933
  714  SOL  HW2 2284   1.324   3.658   1.891
  715  SOL   OW 2285   0.609   2.487   2.932
  715  SOL  HW1 2286   0.688   2.532   2.900
  715  SOL  HW2 2287   0.614   2.400   2.894
  716  SOL   OW 2288   3.351   1.131   1.292
  716  SOL  HW1 2289   3.366   1.152   1.384
  716  SOL  HW2 2290   3.256   1.138   1.282
  717  SOL   OW 2291   2.080   2.682   2.332
  717  SOL  HW1 2292   2.156   2.741   2.337
  717  SOL  HW2 2293   2.036   2.707   2.251
  718  SOL   OW 2294   2.007   3.730   2.842
  718  SOL  HW1 2295   1.937   3.762   2.899
  718  SOL  HW2 2296   2.072   3.693   2.902
  719  SOL   OW 2297   2.764   2.560   0.728
  719  SOL  HW1 2298   2.760   2.468   0.702
  719  SOL  HW2 2299   2.857   2.582   0.724
  720  SOL   OW 2300   1.920   0.466   3.409
  720  SOL  HW1 2301   1.912   0.460   3.314
  720  SOL  HW2 2302   1.849   0.524   3.436
  721  SOL   OW 2303   1.709   3.129   0.393
  721  SOL  HW1 2304   1.781   3.179   0.355
  721  SOL  HW2 2305   1.749   3.046   0.420
  722  SOL   OW 2306   0.003   2.427   0.419
  722  SOL  HW1 2307   0.093   2.458   0.408
  722  SOL  HW2 2308  -0.051   2.505   0.405
  723  SOL   OW 2309   2.298   0.748   2.734
  723  SOL  HW1 2310   2.377   0.694   2.740
  723  SOL  HW2 2311   2.260   0.745   2.821
  724  SOL   OW 2312   0.650   3.614   1.836
  724  SOL  HW1 2313   0.641   3.677   1.907
  724  SOL  HW2 2314   0.659   3.529   1.880
  725  SOL   OW 2315   0.529   1.392   0.115
  725  SOL  HW1 2316   0.482   1.460   0.066
  725  SOL  HW2 2317   0.571   1.339   0.047
  726  SOL   OW 2318   2.424   1.063   1.382
  726  SOL  HW1 2319   2.516   1.063   1.355
  726  SOL  HW2 2320   2.424   1.107   1.467
  727  SOL   OW 2321   3.131   1.864   0.908
  727  SOL  HW1 2322   3.156   1.933   0.968
  727  SOL  HW2 2323   3.162   1.894   0.822
  728  SOL   OW 2324   2.395   1.783   3.202
  728  SOL  HW1 2325   2.326   1.727   3.238
  728  SOL  HW2 2326   2.365   1.803   3.113
  729  SOL   OW 2327   1.433   0.139   2.496
  729  SOL  HW1 2328   1.458   0.116   2.585
  729  SOL  HW2 2329   1.469   0.070   2.441
  730  SOL   OW 2330   3.439   2.228   3.420
  730  SOL  HW1 2331   3.397   2.224   3.334
  730  SOL  HW2 2332   3.395   2.301   3.465
  731  SOL   OW 2333   3.461   2.255   1.975
  731  SOL  HW1 2334   3.377   2.241   1.932
  731  SOL  HW2 2335   3.439   2.296   2.059
  732  SOL   OW 2336   1.974   0.795   2.591
  732  SOL  HW1 2337   1.915   0.721   2.582
  732  SOL  HW2 2338   2.020   0.780   2.673
  733  SOL   OW 2339   0.053   0.412   3.010
  733  SOL  HW1 2340  -0.042   0.426   3.008
  733  SOL  HW2 2341   0.071   0.384   3.100
  734  SOL   OW 2342   0.926   3.037   1.062
  734  SOL  HW1 2343   0.861   3.095   1.022
  734  SOL  HW2 2344   0.890   2.950   1.051
  735  SOL   OW 2345   0.337   2.825   2.372
  735  SOL  HW1 2346   0.394   2.840   2.448
  735  SOL  HW2 2347   0.298   2.739   2.388
  736  SOL   OW 2348   2.709   0.128   1.781
  736  SOL  HW1 2349   2.784   0.183   1.761
  736  SOL  HW2 2350   2.665   0.116   1.697
  737  SOL   OW 2351   1.413   3.163   1.337
  737  SOL  HW1 2352   1.437   3.138   1.247
  737  SOL  HW2 2353   1.365   3.087   1.370
  738  SOL   OW 2354   1.926   0.944   3.205
  738  SOL  HW1 2355   1.847   0.942   3.259
  738  SOL  HW2 2356   1.915   1.021   3.149
  739  SOL   OW 2357   3.624   1.523   3.586
  739  SOL  HW1 2358   3.529   1.536   3.591
  739  SOL  HW2 2359   3.660   1.595   3.639
  740  SOL   OW 2360   3.045   0.691   0.944
  740  SOL  HW1 2361   3.066   0.599   0.956
  740  SOL  HW2 2362   3.085   0.734   1.020
  741  SOL   OW 2363   2.949   2.889   0.279
  741  SOL  HW1 2364   2.914   2.811   0.235
  741  SOL  HW2 2365   2.986   2.941   0.207
  742  SOL   OW 2366   2.476   2.427   1.786
  742  SOL  HW1 2367   2.411   2.406   1.718
  742  SOL  HW2 2368   2.556   2.382   1.757
  743  SOL   OW 2369   1.437   0.670   2.897
  743  SOL  HW1 2370   1.367   0.729   2.924
  743  SOL  HW2 2371   1.488   0.655   2.977
  744  SOL   OW 2372   0.864   2.869   3.118
  744  SOL  HW1 2373   0.867   2.891   3.211
  744  SOL  HW2 2374   0.771   2.861   3.098
  745  SOL   OW 2375   3.600   1.693   1.224
  745  SOL  HW1 2376   3.642   1.775   1.250
  745  SOL  HW2 2377   3.531   1.721   1.164
  746  SOL   OW 2378   1.411   2.243   0.379
  746  SOL  HW1 2379   1.410   2.209   0.468
  746  SOL  HW2 2380   1.376   2.332   0.387
  747  SOL   OW 2381   2.042   1.683   0.266
  747  SOL  HW1 2382   2.111   1.748   0.249
  747  SOL  HW2 2383   2.003   1.710   0.350
  748  SOL   OW 2384   0.185   0.045   1.944
  748  SOL  HW1 2385   0.169   0.060   1.851
  748  SOL  HW2 2386   0.131  -0.032   1.965
  749  SOL   OW 2387   3.093   1.475   0.484
  749  SOL  HW1 2388   3.052   1.478   0.397
  749  SOL  HW2 2389   3.182   1.507   0.470
  750  SOL   OW 2390   0.674   2.055   0.864
  750  SOL  HW1 2391   0.764   2.080   0.840
  750  SOL  HW2 2392   0.672   2.061   0.959
  751  SOL   OW 2393   1.807   1.990   2.782
  751  SOL  HW1 2394   1.855   2.032   2.711
  751  SOL  HW2 2395   1.873   1.976   2.850
  752  SOL   OW 2396   1.160   3.098   0.450
  752  SOL  HW1 2397   1.239   3.124   0.496
  752  SOL  HW2 2398   1.191   3.066   0.365
  753  SOL   OW 2399   3.258   1.459   2.900
  753  SOL  HW1 2400   3.166   1.474   2.923
  753  SOL  HW2 2401   3.306   1.473   2.982
  754  SOL   OW 2402   2.048   0.405   2.530
  754  SOL  HW1 2403   2.090   0.466   2.590
  754  SOL  HW2 2404   2.117   0.344   2.506
  755  SOL   OW 2405   3.251   3.319   0.560
  755  SOL  HW1 2406   3.243   3.401   0.608
  755  SOL  HW2 2407   3.164   3.279   0.566
  756  SOL   OW 2408   0.314   1.773   3.279
  756  SOL  HW1 2409   0.227   1.772   3.318
  756  SOL  HW2 2410   0.360   1.844   3.324
  757  SOL   OW 2411   3.682   0.514   3.572
  757  SOL  HW1 2412   3.604   0.474   3.610
  757  SOL  HW2 2413   3.663   0.608   3.574
  758  SOL   OW 2414   3.475   2.476   0.842
  758  SOL  HW1 2415   3.550   2.418   0.827
  758  SOL  HW2 2416   3.455   2.512   0.756
  759  SOL   OW 2417  -0.014   1.844   2.513
  759  SOL  HW1 2418  -0.033   1.751   2.498
  759  SOL  HW2 2419   0.068   1.859   2.465
  760  SOL   OW 2420   2.666   3.029   1.457
  760  SOL  HW1 2421   2.599   2.969   1.425
  760  SOL  HW2 2422   2.746   3.002   1.412
  761  SOL   OW 2423   0.138   3.759   3.164
  761  SOL  HW1 2424   0.155   3.676   3.209
  761  SOL  HW2 2425   0.123   3.735   3.073
  762  SOL   OW 2426   3.427   2.395   2.917
  762  SOL  HW1 2427   3.485   2.386   2.842
  762  SOL  HW2 2428   3.347   2.433   2.882
  763  SOL   OW 2429   3.134   0.362   0.971
  763  SOL  HW1 2430   3.147   0.308   0.893
  763  SOL  HW2 2431   3.116   0.300   1.041
  764  SOL   OW 2432   1.838   3.231   0.102
  764  SOL  HW1 2433   1.848   3.311   0.050
  764  SOL  HW2 2434   1.745   3.209   0.094
  765  SOL   OW 2435   3.123   0.477   2.530
  765  SOL  HW1 2436   3.155   0.433   2.609
  765  SOL  HW2 2437   3.186   0.547   2.514
  766  SOL   OW 2438   3.111   0.182   0.738
  766  SOL  HW1 2439   3.099   0.144   0.652
  766  SOL  HW2 2440   3.036   0.152   0.789
  767  SOL   OW 2441   0.301   2.611   3.580
  767  SOL  HW1 2442   0.273   2.523   3.605
  767  SOL  HW2 2443   0.314   2.658   3.662
  768  SOL   OW 2444   2.835   1.642   2.568
  768  SOL  HW1 2445   2.748   1.645   2.528
  768  SOL  HW2 2446   2.866   1.553   2.549
  769  SOL   OW 2447   2.248   1.255   1.252
  769  SOL  HW1 2448   2.266   1.259   1.158
  769  SOL  HW2 2449   2.282   1.170   1.279
  770  SOL   OW 2450   2.051   2.552   2.897
  770  SOL  HW1 2451   2.024   2.494   2.826
  770  SOL  HW2 2452   2.047   2.640   2.859
  771  SOL   OW 2453   0.066   2.637   1.829
  771  SOL  HW1 2454   0.120   2.703   1.784
  771  SOL  HW2 2455   0.008   2.603   1.760
  772  SOL   OW 2456   2.592   0.817   0.702
  772  SOL  HW1 2457   2.628   0.729   0.713
  772  SOL  HW2 2458   2.632   0.869   0.771
  773  SOL   OW 2459   1.954   1.268   1.503
  773  SOL  HW1 2460   1.964   1.215   1.582
  773  SOL  HW2 2461   1.876   1.232   1.460
  774  SOL   OW 2462   0.150   0.014   2.393
  774  SOL  HW1 2463   0.116   0.096   2.428
  774  SOL  HW2 2464   0.138  -0.050   2.463
  775  SOL   OW 2465   1.692   3.037   0.886
  775  SOL  HW1 2466   1.645   2.986   0.820
  775  SOL  HW2 2467   1.663   3.127   0.871
  776  SOL   OW 2468   3.349   1.816   3.151
  776  SOL  HW1 2469   3.409   1.773   3.090
  776  SOL  HW2 2470   3.343   1.756   3.225
  777  SOL   OW 2471   0.028   0.053   0.518
  777  SOL  HW1 2472   0.054   0.055   0.610
  777  SOL  HW2 2473  -0.057   0.096   0.516
  778  SOL   OW 2474   2.402   0.877   0.244
  778  SOL  HW1 2475   2.451   0.897   0.324
  778  SOL  HW2 2476   2.315   0.911   0.261
  779  SOL   OW 2477   0.418   3.487   3.531
  779  SOL  HW1 2478   0.367   3.509   3.453
  779  SOL  HW2 2479   0.422   3.391   3.530
  780  SOL   OW 2480   0.395   1.838   0.833
  780  SOL  HW1 2481   0.467   1.891   0.798
  780  SOL  HW2 2482   0.333   1.831   0.760
  781  SOL   OW 2483   2.042   2.485   0.912
  781  SOL  HW1 2484   1.953   2.470   0.879
  781  SOL  HW2 2485   2.075   2.397   0.931
  782  SOL   OW 2486   1.182   0.515   3.748
  782  SOL  HW1 2487   1.160   0.528   3.656
  782  SOL  HW2 2488   1.138   0.434   3.773
  783  SOL   OW 2489   3.208   2.102   0.726
  783  SOL  HW1 2490   3.204   2.161   0.651
  783  SOL  HW2 2491   3.300   2.073   0.728
  784  SOL   OW 2492   3.687   0.312   1.413
  784  SOL  HW1 2493   3.637   0.363   1.348
  784  SOL  HW2 2494   3.779   0.330   1.391
  785  SOL   OW 2495   1.804   0.278   0.392
  785  SOL  HW1 2496   1.728   0.230   0.360
  785  SOL  HW2 2497   1.790   0.284   0.486
  786  SOL   OW 2498   0.711   1.860   3.163
  786  SOL  HW1 2499   0.664   1.928   3.115
  786  SOL  HW2 2500   0.753   1.907   3.236
  787  SOL   OW 2501   1.779   2.643   3.339
  787  SOL  HW1 2502   1.773   2.609   3.250
  787  SOL  HW2 2503   1.723   2.585   3.391
  788  SOL   OW 2504   2.689   0.817   1.091
  788  SOL  HW1 2505   2.682   0.723   1.110
  788  SOL  HW2 2506   2.710   0.856   1.176
  789  SOL   OW 2507   0.839  -0.024   3.712
  789  SOL  HW1 2508   0.851   0.069   3.691
  789  SOL  HW2 2509   0.747  -0.031   3.737
  790  SOL   OW 2510   0.025   3.613   1.732
  790  SOL  HW1 2511   0.121   3.617   1.739
  790  SOL  HW2 2512   0.001   3.532   1.776
  791  SOL   OW 2513   1.349   3.753   0.350
  791  SOL  HW1 2514   1.284   3.742   0.280
  791  SOL  HW2 2515   1.323   3.689   0.416
  792  SOL   OW 2516   3.636   0.582   0.671
  792  SOL  HW1 2517   3.604   0.564   0.759
  792  SOL  HW2 2518   3.578   0.650   0.637
  793  SOL   OW 2519   2.077   2.596   1.653
  793  SOL  HW1 2520   2.105   2.504   1.659
  793  SOL  HW2 2521   2.159   2.646   1.648
  794  SOL   OW 2522   2.645   2.099   2.273
  794  SOL  HW1 2523   2.586   2.033   2.236
  794  SOL  HW2 2524   2.670   2.153   2.198
  795  SOL   OW 2525   3.252   2.374   3.579
  795  SOL  HW1 2526   3.222   2.286   3.601
  795  SOL  HW2 2527   3.338   2.381   3.621
  796  SOL   OW 2528   0.060   2.398   1.957
  796  SOL  HW1 2529   0.073   2.472   1.899
  796  SOL  HW2 2530   0.099   2.425   2.041
  797  SOL   OW 2531   0.198   0.850   0.972
  797  SOL  HW1 2532   0.237   0.913   1.033
  797  SOL  HW2 2533   0.273   0.801   0.937
  798  SOL   OW 2534   3.637   2.537   1.611
  798  SOL  HW1 2535   3.614   2.444   1.612
  798  SOL  HW2 2536   3.597   2.570   1.530
  799  SOL   OW 2537   1.927   1.451   1.292
  799  SOL  HW1 2538   1.917   1.533   1.341
  799  SOL  HW2 2539   1.944   1.385   1.360
  800  SOL   OW 2540   2.230   2.944   2.359
  800  SOL  HW1 2541   2.293   2.957   2.288
  800  SOL  HW2 2542   2.176   3.022   2.358
  801  SOL   OW 2543   0.631   0.046   1.343
  801  SOL  HW1 2544   0.662   0.052   1.252
  801  SOL  HW2 2545   0.702   0.001   1.389
  802  SOL   OW 2546   2.179   2.211   3.735
  802  SOL  HW1 2547   2.151   2.301   3.752
  802  SOL  HW2 2548   2.101   2.167   3.699
  803  SOL   OW 2549   0.260   1.607   0.419
  803  SOL  HW1 2550   0.352   1.613   0.441
  803  SOL  HW2 2551   0.257   1.543   0.347
  804  SOL   OW 2552   2.000   3.377   0.286
  804  SOL  HW1 2553   1.934   3.439   0.318
  804  SOL  HW2 2554   1.949   3.307   0.245
  805  SOL   OW 2555   0.273   2.050   1.437
  805  SOL  HW1 2556   0.295   2.098   1.517
  805  SOL  HW2 2557   0.320   1.967   1.445
  806  SOL   OW 2558   1.459   3.278   1.895
  806  SOL  HW1 2559   1.552   3.288   1.875
  806  SOL  HW2 2560   1.428   3.212   1.833
  807  SOL   OW 2561   2.050   0.566   2.755
  807  SOL  HW1 2562   2.024   0.643   2.804
  807  SOL  HW2 2563   2.070   0.500   2.821
  808  SOL   OW 2564   1.109   0.766   3.190
  808  SOL  HW1 2565   1.102   0.835   3.123
  808  SOL  HW2 2566   1.050   0.697   3.159
  809  SOL   OW 2567   2.389   3.412   0.545
  809  SOL  HW1 2568   2.410   3.465   0.622
  809  SOL  HW2 2569   2.295   3.423   0.533
  810  SOL   OW 2570   0.506   1.932   1.186
  810  SOL  HW1 2571   0.420   1.898   1.160
  810  SOL  HW2 2572   0.566   1.859   1.170
  811  SOL   OW 2573   1.453   3.466   2.873
  811  SOL  HW1 2574   1.444   3.427   2.786
  811  SOL  HW2 2575   1.526   3.420   2.913
  812  SOL   OW 2576   3.447   2.660   0.674
  812  SOL  HW1 2577   3.469   2.753   0.676
  812  SOL  HW2 2578   3.356   2.657   0.647
  813  SOL   OW 2579   2.814   0.388   2.654
  813  SOL  HW1 2580   2.806   0.469   2.703
  813  SOL  HW2 2581   2.890   0.344   2.693
  814  SOL   OW 2582   0.796   2.913   1.290
  814  SOL  HW1 2583   0.799   2.841   1.352
  814  SOL  HW2 2584   0.888   2.932   1.271
  815  SOL   OW 2585   3.340   3.696   0.507
  815  SOL  HW1 2586   3.311   3.787   0.505
  815  SOL  HW2 2587   3.319   3.666   0.595
  816  SOL   OW 2588   3.352   1.900   3.521
  816  SOL  HW1 2589   3.433   1.914   3.570
  816  SOL  HW2 2590   3.319   1.988   3.504
  817  SOL   OW 2591   1.799   1.486   0.628
  817  SOL  HW1 2592   1.884   1.486   0.672
  817  SOL  HW2 2593   1.760   1.402   0.651
  818  SOL   OW 2594   1.771   3.238   1.819
  818  SOL  HW1 2595   1.711   3.208   1.751
  818  SOL  HW2 2596   1.857   3.205   1.792
  819  SOL   OW 2597   3.233   3.249   0.900
  819  SOL  HW1 2598   3.163   3.194   0.866
  819  SOL  HW2 2599   3.205   3.272   0.988
  820  SOL   OW 2600   2.452   1.376   3.690
  820  SOL  HW1 2601   2.380   1.321   3.658
  820  SOL  HW2 2602   2.521   1.314   3.712
  821  SOL   OW 2603   2.038   2.218   1.311
  821  SOL  HW1 2604   2.133   2.233   1.318
  821  SOL  HW2 2605   2.018   2.157   1.382
  822  SOL   OW 2606   1.799   0.924   1.966
  822  SOL  HW1 2607   1.825   0.993   2.028
  822  SOL  HW2 2608   1.738   0.870   2.015
  823  SOL   OW 2609   0.504   2.599   1.703
  823  SOL  HW1 2610   0.529   2.535   1.637
  823  SOL  HW2 2611   0.435   2.557   1.754
  824  SOL   OW 2612   0.770   3.234  -0.032
  824  SOL  HW1 2613   0.797   3.312   0.017
  824  SOL  HW2 2614   0.706   3.191   0.023
  825  SOL   OW 2615   0.079   3.179   3.616
  825  SOL  HW1 2616   0.140   3.163   3.543
  825  SOL  HW2 2617  -0.006   3.152   3.581
  826  SOL   OW 2618   1.337   2.749   2.716
  826  SOL  HW1 2619   1.350   2.709   2.630
  826  SOL  HW2 2620   1.329   2.843   2.698
  827  SOL   OW 2621   1.033   2.186   3.343
  827  SOL  HW1 2622   0.965   2.174   3.277
  827  SOL  HW2 2623   1.013   2.270   3.384
  828  SOL   OW 2624   0.053   0.889   0.722
  828  SOL  HW1 2625   0.096   0.892   0.808
  828  SOL  HW2 2626   0.102   0.823   0.673
  829  SOL   OW 2627   2.428   2.010   2.534
  829  SOL  HW1 2628   2.482   1.938   2.502
  829  SOL  HW2 2629   2.349   1.968   2.568
  830  SOL   OW 2630   3.114   1.677   2.297
  830  SOL  HW1 2631   3.135   1.648   2.386
  830  SOL  HW2 2632   3.141   1.606   2.240
  831  SOL   OW 2633   3.229   2.864   0.892
  831  SOL  HW1 2634   3.289   2.893   0.824
  831  SOL  HW2 2635   3.264   2.779   0.921
  832  SOL   OW 2636   0.266   0.602   1.898
  832  SOL  HW1 2637   0.179   0.615   1.936
  832  SOL  HW2 2638   0.288   0.511   1.918
  833  SOL   OW 2639   3.655   1.132   0.697
  833  SOL  HW1 2640   3.715   1.058   0.710
  833  SOL  HW2 2641   3.683   1.172   0.615
  834  SOL   OW 2642   3.480   1.987   2.515
  834  SOL  HW1 2643   3.561   1.938   2.501
  834  SOL  HW2 2644   3.494   2.070   2.470
  835  SOL   OW 2645   0.635   0.592   1.508
  835  SOL  HW1 2646   0.663   0.577   1.598
  835  SOL  HW2 2647   0.617   0.505   1.473
  836  SOL   OW 2648   1.409   3.136   1.064
  836  SOL  HW1 2649   1.377   3.227   1.063
  836  SOL  HW2 2650   1.385   3.102   0.978
  837  SOL   OW 2651   2.502   1.035   1.051
  837  SOL  HW1 2652   2.550   0.957   1.080
  837  SOL  HW2 2653   2.537   1.106   1.106
  838  SOL   OW 2654   2.428   2.304   1.514
  838  SOL  HW1 2655   2.414   2.308   1.419
  838  SOL  HW2 2656   2.489   2.232   1.527
  839  SOL   OW 2657   1.391   2.420   2.817
  839  SOL  HW1 2658   1.423   2.357   2.752
  839  SOL  HW2 2659   1.459   2.422   2.884
  840  SOL   OW 2660   0.910   1.622   2.876
  840  SOL  HW1 2661   0.862   1.540   2.865
  840  SOL  HW2 2662   1.000   1.601   2.851
  841  SOL   OW 2663   1.291   1.338   3.105
  841  SOL  HW1 2664   1.318   1.366   3.018
  841  SOL  HW2 2665   1.307   1.414   3.161
  842  SOL   OW 2666   3.502   3.134   0.819
  842  SOL  HW1 2667   3.410   3.134   0.846
  842  SOL  HW2 2668   3.519   3.225   0.794
  843  SOL   OW 2669   1.608   3.574   2.086
  843  SOL  HW1 2670   1.531   3.579   2.030
  843  SOL  HW2 2671   1.677   3.617   2.036
  844  SOL   OW 2672   3.441   0.606   2.031
  844  SOL  HW1 2673   3.368   0.603   1.969
  844  SOL  HW2 2674   3.439   0.520   2.073
  845  SOL   OW 2675   0.228   0.867   3.458
  845  SOL  HW1 2676   0.258   0.930   3.392
  845  SOL  HW2 2677   0.255   0.782   3.423
  846  SOL   OW 2678   1.275   2.975   3.163
  846  SOL  HW1 2679   1.281   2.900   3.105
  846  SOL  HW2 2680   1.293   3.050   3.106
  847  SOL   OW 2681   3.334   0.781   1.478
  847  SOL  HW1 2682   3.305   0.692   1.458
  847  SOL  HW2 2683   3.381   0.809   1.399
  848  SOL   OW 2684   0.599   1.047   2.448
  848  SOL  HW1 2685   0.610   0.974   2.387
  848  SOL  HW2 2686   0.517   1.089   2.420
  849  SOL   OW 2687   3.308   2.298   1.034
  849  SOL  HW1 2688   3.328   2.345   1.114
  849  SOL  HW2 2689   3.370   2.332   0.969
  850  SOL   OW 2690   2.946   1.902   2.320
  850  SOL  HW1 2691   2.980   1.940   2.239
  850  SOL  HW2 2692   3.011   1.836   2.344
  851  SOL   OW 2693   0.419   3.552   1.179
  851  SOL  HW1 2694   0.476   3.483   1.211
  851  SOL  HW2 2695   0.476   3.606   1.124
  852  SOL   OW 2696   2.616   0.560   1.000
  852  SOL  HW1 2697   2.533   0.558   1.047
  852  SOL  HW2 2698   2.593   0.590   0.912
  853  SOL   OW 2699   0.338   0.058   0.556
  853  SOL  HW1 2700   0.405   0.120   0.584
  853  SOL  HW2 2701   0.261   0.081   0.609
  854  SOL   OW 2702   2.468   2.252   2.666
  854  SOL  HW1 2703   2.454   2.171   2.617
  854  SOL  HW2 2704   2.534   2.230   2.731
  855  SOL   OW 2705   3.072   3.036   0.097
  855  SOL  HW1 2706   3.099   3.087   0.174
  855  SOL  HW2 2707   3.030   3.100   0.040
  856  SOL   OW 2708   0.279   2.030   2.684
  856  SOL  HW1 2709   0.308   2.002   2.597
  856  SOL  HW2 2710   0.339   1.986   2.744
  857  SOL   OW 2711   1.440   3.426   1.275
  857  SOL  HW1 2712   1.385   3.384   1.209
  857  SOL  HW2 2713   1.530   3.404   1.250
  858  SOL   OW 2714   1.193   3.566   2.561
  858  SOL  HW1 2715   1.187   3.472   2.542
  858  SOL  HW2 2716   1.253   3.571   2.635
  859  SOL   OW 2717   3.133   1.818   1.669
  859  SOL  HW1 2718   3.206   1.764   1.698
  859  SOL  HW2 2719   3.173   1.896   1.630
  860  SOL   OW 2720   0.111   0.329   1.944
  860  SOL  HW1 2721   0.126   0.281   1.863
  860  SOL  HW2 2722   0.194   0.325   1.991
  861  SOL   OW 2723   2.041   2.452   0.015
  861  SOL  HW1 2724   1.985   2.439  -0.062
  861  SOL  HW2 2725   1.982   2.441   0.089
  862  SOL   OW 2726   2.028   3.445   1.802
  862  SOL  HW1 2727   1.961   3.501   1.762
  862  SOL  HW2 2728   2.068   3.399   1.729
  863  SOL   OW 2729   1.917   2.568   0.259
  863  SOL  HW1 2730   1.971   2.647   0.255
  863  SOL  HW2 2731   1.932   2.534   0.347
  864  SOL   OW 2732   0.380   2.534   0.266
  864  SOL  HW1 2733   0.376   2.478   0.189
  864  SOL  HW2 2734   0.324   2.490   0.330
  865  SOL   OW 2735   0.584   3.707   2.352
  865  SOL  HW1 2736   0.568   3.615   2.333
  865  SOL  HW2 2737   0.520   3.754   2.298
  866  SOL   OW 2738   2.897   2.683   1.683
  866  SOL  HW1 2739   2.960   2.652   1.748
  866  SOL  HW2 2740   2.893   2.778   1.698
  867  SOL   OW 2741   2.603   2.734   1.691
  867  SOL  HW1 2742   2.686   2.725   1.643
  867  SOL  HW2 2743   2.544   2.777   1.630
  868  SOL   OW 2744   0.004   1.940   1.086
  868  SOL  HW1 2745   0.093   1.924   1.117
  868  SOL  HW2 2746  -0.019   2.025   1.124
  869  SOL   OW 2747   1.020   1.689   1.204
  869  SOL  HW1 2748   0.975   1.748   1.143
  869  SOL  HW2 2749   1.099   1.663   1.158
  870  SOL   OW 2750   1.695   3.576   1.230
  870  SOL  HW1 2751   1.675   3.494   1.185
  870  SOL  HW2 2752   1.750   3.625   1.169
  871  SOL   OW 2753   2.770   1.215   0.967
  871  SOL  HW1 2754   2.844   1.274   0.980
  871  SOL  HW2 2755   2.694   1.265   0.998
  872  SOL   OW 2756   2.176   3.496   0.803
  872  SOL  HW1 2757   2.086   3.469   0.786
  872  SOL  HW2 2758   2.202   3.449   0.881
  873  SOL   OW 2759   2.418   2.152   1.083
  873  SOL  HW1 2760   2.359   2.078   1.068
  873  SOL  HW2 2761   2.505   2.112   1.092
  874  SOL   OW 2762   2.567   2.941   3.050
  874  SOL  HW1 2763   2.596   3.030   3.067
  874  SOL  HW2 2764   2.472   2.943   3.061
  875  SOL   OW 2765   0.997   1.310   2.543
  875  SOL  HW1 2766   0.923   1.255   2.569
  875  SOL  HW2 2767   0.959   1.397   2.531
  876  SOL   OW 2768   1.151   2.678   1.002
  876  SOL  HW1 2769   1.233   2.630   1.017
  876  SOL  HW2 2770   1.154   2.750   1.066
  877  SOL   OW 2771   0.398   0.745   1.639
  877  SOL  HW1 2772   0.317   0.706   1.671
  877  SOL  HW2 2773   0.426   0.686   1.569
  878  SOL   OW 2774   3.541   1.085   0.940
  878  SOL  HW1 2775   3.594   1.119   0.867
  878  SOL  HW2 2776   3.525   1.161   0.995
  879  SOL   OW 2777   3.474   1.344   2.756
  879  SOL  HW1 2778   3.397   1.378   2.802
  879  SOL  HW2 2779   3.452   1.252   2.740
  880  SOL   OW 2780   3.503   1.086   3.294
  880  SOL  HW1 2781   3.436   1.023   3.319
  880  SOL  HW2 2782   3.465   1.134   3.221
  881  SOL   OW 2783   1.326   1.231   0.266
  881  SOL  HW1 2784   1.316   1.157   0.205
  881  SOL  HW2 2785   1.420   1.240   0.278
  882  SOL   OW 2786   1.006   2.462   3.385
  882  SOL  HW1 2787   0.920   2.486   3.418
  882  SOL  HW2 2788   1.026   2.529   3.319
  883  SOL   OW 2789   1.399   0.773   3.238
  883  SOL  HW1 2790   1.314   0.804   3.269
  883  SOL  HW2 2791   1.433   0.843   3.183
  884  SOL   OW 2792   1.511   0.455   0.611
  884  SOL  HW1 2793   1.524   0.537   0.657
  884  SOL  HW2 2794   1.465   0.480   0.530
  885  SOL   OW 2795   2.015   1.084   1.247
  885  SOL  HW1 2796   2.036   1.168   1.207
  885  SOL  HW2 2797   1.987   1.029   1.173
  886  SOL   OW 2798   2.191   0.901   3.114
  886  SOL  HW1 2799   2.106   0.942   3.135
  886  SOL  HW2 2800   2.211   0.847   3.190
  887  SOL   OW 2801   0.657   1.029   3.660
  887  SOL  HW1 2802   0.744   1.037   3.699
  887  SOL  HW2 2803   0.598   1.017   3.734
  888  SOL   OW 2804   1.425   0.350   3.745
  888  SOL  HW1 2805   1.340   0.337   3.788
  888  SOL  HW2 2806   1.409   0.332   3.653
  889  SOL   OW 2807   1.910   0.802   2.320
  889  SOL  HW1 2808   1.944   0.806   2.410
  889  SOL  HW2 2809   1.988   0.786   2.267
  890  SOL   OW 2810   2.943   2.689   3.310
  890  SOL  HW1 2811   2.934   2.633   3.387
  890  SOL  HW2 2812   2.862   2.741   3.309
  891  SOL   OW 2813   3.142   3.428   3.177
  891  SOL  HW1 2814   3.137   3.352   3.120
  891  SOL  HW2 2815   3.106   3.398   3.260
  892  SOL   OW 2816   2.189   2.366   1.628
  892  SOL  HW1 2817   2.252   2.330   1.566
  892  SOL  HW2 2818   2.162   2.290   1.680
  893  SOL   OW 2819   3.231   2.379   1.468
  893  SOL  HW1 2820   3.151   2.334   1.495
  893  SOL  HW2 2821   3.295   2.355   1.536
  894  SOL   OW 2822   3.375   0.875   2.755
  894  SOL  HW1 2823   3.419   0.891   2.838
  894  SOL  HW2 2824   3.346   0.962   2.726
  895  SOL   OW 2825   3.502   0.844   0.778
  895  SOL  HW1 2826   3.495   0.894   0.859
  895  SOL  HW2 2827   3.585   0.874   0.739
  896  SOL   OW 2828   1.579   1.664   1.928
  896  SOL  HW1 2829   1.545   1.751   1.950
  896  SOL  HW2 2830   1.659   1.681   1.880
  897  SOL   OW 2831   3.687   2.067   0.166
  897  SOL  HW1 2832   3.663   2.063   0.073
  897  SOL  HW2 2833   3.691   1.976   0.194
  898  SOL   OW 2834   2.221   3.448   2.416
  898  SOL  HW1 2835   2.198   3.407   2.499
  898  SOL  HW2 2836   2.307   3.486   2.431
  899  SOL   OW 2837   1.302   0.329   3.027
  899  SOL  HW1 2838   1.209   0.322   3.004
  899  SOL  HW2 2839   1.346   0.346   2.944
  900  SOL   OW 2840   2.550   2.828  -0.020
  900  SOL  HW1 2841   2.523   2.776   0.055
  900  SOL  HW2 2842   2.490   2.903  -0.021
  901  SOL   OW 2843   2.480   3.483   0.269
  901  SOL  HW1 2844   2.423   3.446   0.203
  901  SOL  HW2 2845   2.459   3.435   0.349
  902  SOL   OW 2846   1.730   1.200   0.045
  902  SOL  HW1 2847   1.815   1.174   0.010
  902  SOL  HW2 2848   1.741   1.202   0.140
  903  SOL   OW 2849   1.986   3.710   0.469
  903  SOL  HW1 2850   1.916   3.648   0.448
  903  SOL  HW2 2851   2.024   3.732   0.384
  904  SOL   OW 2852   2.947   2.704   3.759
  904  SOL  HW1 2853   3.002   2.660   3.693
  904  SOL  HW2 2854   2.918   2.784   3.716
  905  SOL   OW 2855   1.331   3.016   2.767
  905  SOL  HW1 2856   1.425   3.003   2.778
  905  SOL  HW2 2857   1.305   3.069   2.842
  906  SOL   OW 2858   3.183   3.168   1.702
  906  SOL  HW1 2859   3.218   3.086   1.667
  906  SOL  HW2 2860   3.259   3.210   1.744
  907  SOL   OW 2861   1.238   1.152   3.584
  907  SOL  HW1 2862   1.220   1.118   3.496
  907  SOL  HW2 2863   1.333   1.166   3.585
  908  SOL   OW 2864   2.231   1.215  -0.014
  908  SOL  HW1 2865   2.173   1.280   0.024
  908  SOL  HW2 2866   2.225   1.140   0.045
  909  SOL   OW 2867   3.020   2.124   2.879
  909  SOL  HW1 2868   3.080   2.086   2.942
  909  SOL  HW2 2869   3.060   2.107   2.794
  910  SOL   OW 2870   0.201   1.658   1.472
  910  SOL  HW1 2871   0.221   1.635   1.381
  910  SOL  HW2 2872   0.121   1.609   1.491
  911  SOL   OW 2873   0.738   0.811   2.049
  911  SOL  HW1 2874   0.649   0.774   2.052
  911  SOL  HW2 2875   0.732   0.891   2.100
  912  SOL   OW 2876   1.988   0.552   1.960
  912  SOL  HW1 2877   2.018   0.501   2.036
  912  SOL  HW2 2878   1.932   0.491   1.911
  913  SOL   OW 2879   2.573   1.300   2.381
  913  SOL  HW1 2880   2.664   1.274   2.373
  913  SOL  HW2 2881   2.545   1.318   2.291
  914  SOL   OW 2882   0.112   2.754   3.242
  914  SOL  HW1 2883   0.074   2.840   3.227
  914  SOL  HW2 2884   0.081   2.729   3.329
  915  SOL   OW 2885   1.610   0.556   2.657
  915  SOL  HW1 2886   1.568   0.557   2.743
  915  SOL  HW2 2887   1.545   0.515   2.599
  916  SOL   OW 2888   1.492   1.750   1.604
  916  SOL  HW1 2889   1.524   1.761   1.694
  916  SOL  HW2 2890   1.542   1.676   1.570
  917  SOL   OW 2891   3.195   2.020   3.038
  917  SOL  HW1 2892   3.232   2.107   3.055
  917  SOL  HW2 2893   3.255   1.960   3.083
  918  SOL   OW 2894   1.743   3.663   0.957
  918  SOL  HW1 2895   1.750   3.758   0.947
  918  SOL  HW2 2896   1.695   3.635   0.879
  919  SOL   OW 2897   2.201   0.471   0.043
  919  SOL  HW1 2898   2.205   0.544   0.105
  919  SOL  HW2 2899   2.245   0.399   0.089
  920  SOL   OW 2900   2.088   3.034   3.038
  920  SOL  HW1 2901   2.073   3.060   2.947
  920  SOL  HW2 2902   2.159   2.970   3.033
  921  SOL   OW 2903   1.643   0.210   0.864
  921  SOL  HW1 2904   1.569   0.220   0.804
  921  SOL  HW2 2905   1.614   0.252   0.945
  922  SOL   OW 2906   1.750   0.156   2.245
  922  SOL  HW1 2907   1.663   0.167   2.207
  922  SOL  HW2 2908   1.785   0.077   2.203
  923  SOL   OW 2909   0.782   3.429   1.217
  923  SOL  HW1 2910   0.723   3.409   1.290
  923  SOL  HW2 2911   0.846   3.489   1.254
  924  SOL   OW 2912   2.996   1.642   1.046
  924  SOL  HW1 2913   2.982   1.727   1.004
  924  SOL  HW2 2914   3.086   1.646   1.078
  925  SOL   OW 2915   0.505   0.346   2.798
  925  SOL  HW1 2916   0.458   0.372   2.877
  925  SOL  HW2 2917   0.535   0.429   2.759
  926  SOL   OW 2918   3.199   3.678   0.057
  926  SOL  HW1 2919   3.237   3.597   0.090
  926  SOL  HW2 2920   3.214   3.742   0.126
  927  SOL   OW 2921   0.750   0.419   1.171
  927  SOL  HW1 2922   0.779   0.490   1.113
  927  SOL  HW2 2923   0.818   0.353   1.164
  928  SOL   OW 2924   2.398   1.981   1.349
  928  SOL  HW1 2925   2.343   1.959   1.425
  928  SOL  HW2 2926   2.480   2.014   1.387
  929  SOL   OW 2927   1.872   1.783   0.488
  929  SOL  HW1 2928   1.930   1.798   0.563
  929  SOL  HW2 2929   1.830   1.699   0.507
  930  SOL   OW 2930   3.157   2.500   2.271
  930  SOL  HW1 2931   3.076   2.548   2.254
  930  SOL  HW2 2932   3.196   2.544   2.347
  931  SOL   OW 2933   0.811   0.289   2.765
  931  SOL  HW1 2934   0.749   0.220   2.744
  931  SOL  HW2 2935   0.804   0.350   2.692
  932  SOL   OW 2936   0.890   2.017   1.940
  932  SOL  HW1 2937   0.835   1.991   2.013
  932  SOL  HW2 2938   0.874   1.951   1.873
  933  SOL   OW 2939   0.392   0.204   3.209
  933  SOL  HW1 2940   0.320   0.141   3.208
  933  SOL  HW2 2941   0.349   0.288   3.222
  934  SOL   OW 2942   0.474   3.207   3.466
  934  SOL  HW1 2943   0.478   3.121   3.508
  934  SOL  HW2 2944   0.524   3.197   3.385
  935  SOL   OW 2945   2.102   3.542   2.163
  935  SOL  HW1 2946   2.186   3.517   2.203
  935  SOL  HW2 2947   2.062   3.459   2.137
  936  SOL   OW 2948   2.666   1.136   3.323
  936  SOL  HW1 2949   2.637   1.050   3.353
  936  SOL  HW2 2950   2.690   1.122   3.231
  937  SOL   OW 2951   3.258   0.161   0.216
  937  SOL  HW1 2952   3.187   0.166   0.280
  937  SOL  HW2 2953   3.252   0.243   0.168
  938  SOL   OW 2954   3.023   2.701   2.605
  938  SOL  HW1 2955   2.929   2.704   2.623
  938  SOL  HW2 2956   3.044   2.789   2.577
  939  SOL   OW 2957   2.755   3.309   1.284
  939  SOL  HW1 2958   2.677   3.304   1.229
  939  SOL  HW2 2959   2.820   3.254   1.240
  940  SOL   OW 2960   1.997   2.810   1.487
  940  SOL  HW1 2961   2.069   2.848   1.436
  940  SOL  HW2 2962   2.040   2.752   1.550
  941  SOL   OW 2963   1.112   3.458   0.230
  941  SOL  HW1 2964   1.131   3.542   0.189
  941  SOL  HW2 2965   1.189   3.440   0.285
  942  SOL   OW 2966   2.426   2.911   2.127
  942  SOL  HW1 2967   2.419   2.817   2.144
  942  SOL  HW2 2968   2.486   2.918   2.052
  943  SOL   OW 2969   1.392   0.419   2.808
  943  SOL  HW1 2970   1.351   0.419   2.722
  943  SOL  HW2 2971   1.384   0.510   2.839
  944  SOL   OW 2972   0.664   1.414   0.764
  944  SOL  HW1 2973   0.594   1.358   0.797
  944  SOL  HW2 2974   0.649   1.419   0.670
  945  SOL   OW 2975   0.807   0.765   3.335
  945  SOL  HW1 2976   0.734   0.815   3.300
  945  SOL  HW2 2977   0.854   0.734   3.258
  946  SOL   OW 2978   1.747   3.281   3.288
  946  SOL  HW1 2979   1.815   3.220   3.258
  946  SOL  HW2 2980   1.668   3.228   3.293
  947  SOL   OW 2981   2.521   0.219   0.521
  947  SOL  HW1 2982   2.513   0.244   0.613
  947  SOL  HW2 2983   2.561   0.132   0.524
  948  SOL   OW 2984   2.587   3.221   0.405
  948  SOL  HW1 2985   2.544   3.154   0.352
  948  SOL  HW2 2986   2.517   3.257   0.459
  949  SOL   OW 2987   1.899   3.212   1.404
  949  SOL  HW1 2988   1.891   3.182   1.313
  949  SOL  HW2 2989   1.850   3.147   1.455
  950  SOL   OW 2990   0.314   0.861   0.542
  950  SOL  HW1 2991   0.262   0.859   0.462
  950  SOL  HW2 2992   0.347   0.950   0.547
  951  SOL   OW 2993   1.502   1.151   2.355
  951  SOL  HW1 2994   1.447   1.185   2.285
  951  SOL  HW2 2995   1.443   1.100   2.410
  952  SOL   OW 2996   2.641   2.607   2.236
  952  SOL  HW1 2997   2.563   2.603   2.181
  952  SOL  HW2 2998   2.615   2.566   2.319
  953  SOL   OW 2999   0.200   0.835   2.204
  953  SOL  HW1 3000   0.115   0.859   2.242
  953  SOL  HW2 3001   0.222   0.752   2.246
  954  SOL   OW 3002   0.230   0.878   1.399
  954  SOL  HW1 3003   0.309   0.826   1.415
  954  SOL  HW2 3004   0.161   0.813   1.384
  955  SOL   OW 3005   0.050   3.128   2.693
  955  SOL  HW1 3006   0.014   3.214   2.718
  955  SOL  HW2 3007   0.013   3.068   2.758
  956  SOL   OW 3008   2.057   1.673   3.697
  956  SOL  HW1 3009   2.067   1.678   3.792
  956  SOL  HW2 3010   2.068   1.763   3.666
  957  SOL   OW 3011   0.066   0.208   2.594
  957  SOL  HW1 3012   0.112   0.290   2.614
  957  SOL  HW2 3013   0.072   0.157   2.674
  958  SOL   OW 3014   2.323   2.986   3.660
  958  SOL  HW1 3015   2.262   2.961   3.729
  958  SOL  HW2 3016   2.359   3.070   3.690
  959  SOL   OW 3017   0.917   1.858   1.031
  959  SOL  HW1 3018   0.892   1.948   1.055
  959  SOL  HW2 3019   0.839   1.823   0.987
  960  SOL   OW 3020   1.065   2.328   1.016
  960  SOL  HW1 3021   1.153   2.361   1.032
  960  SOL  HW2 3022   1.017   2.345   1.097
  961  SOL   OW 3023   0.145   3.193   0.753
  961  SOL  HW1 3024   0.080   3.232   0.811
  961  SOL  HW2 3025   0.229   3.222   0.789
  962  SOL   OW 3026   1.517   0.135   2.093
  962  SOL  HW1 3027   1.442   0.112   2.148
  962  SOL  HW2 3028   1.520   0.231   2.097
  963  SOL   OW 3029   0.967   2.077   0.038
  963  SOL  HW1 3030   0.932   1.988   0.030
  963  SOL  HW2 3031   1.053   2.073  -0.004
  964  SOL   OW 3032   3.284   2.967   1.554
  964  SOL  HW1 3033   3.307   2.931   1.468
  964  SOL  HW2 3034   3.317   2.902   1.616
  965  SOL   OW 3035   2.841   2.317   2.386
  965  SOL  HW1 3036   2.805   2.248   2.330
  965  SOL  HW2 3037   2.869   2.385   2.324
  966  SOL   OW 3038   1.997   3.037   1.766
  966  SOL  HW1 3039   2.057   2.999   1.829
  966  SOL  HW2 3040   2.046   3.040   1.684
  967  SOL   OW 3041   1.066   3.749   2.843
  967  SOL  HW1 3042   1.023   3.764   2.758
  967  SOL  HW2 3043   1.098   3.658   2.838
  968  SOL   OW 3044   0.142   2.261   2.510
  968  SOL  HW1 3045   0.200   2.229   2.579
  968  SOL  HW2 3046   0.063   2.208   2.517
  969  SOL   OW 3047   1.736   3.554   3.212
  969  SOL  HW1 3048   1.723   3.463   3.184
  969  SOL  HW2 3049   1.648   3.584   3.234
  970  SOL   OW 3050   2.449   2.926   1.019
  970  SOL  HW1 3051   2.360   2.901   0.996
  970  SOL  HW2 3052   2.504   2.870   0.964
  971  SOL   OW 3053   0.214   1.871   2.333
  971  SOL  HW1 3054   0.294   1.891   2.382
  971  SOL  HW2 3055   0.235   1.892   2.242
  972  SOL   OW 3056   1.534   0.254   0.290
  972  SOL  HW1 3057   1.495   0.168   0.310
  972  SOL  HW2 3058   1.519   0.265   0.196
  973  SOL   OW 3059   0.824   3.496   2.561
  973  SOL  HW1 3060   0.733   3.471   2.571
  973  SOL  HW2 3061   0.873   3.414   2.576
  974  SOL   OW 3062   0.375   1.548   0.779
  974  SOL  HW1 3063   0.421   1.616   0.829
  974  SOL  HW2 3064   0.421   1.544   0.695
  975  SOL   OW 3065   0.311   0.167   3.702
  975  SOL  HW1 3066   0.309   0.251   3.656
  975  SOL  HW2 3067   0.220   0.147   3.721
  976  SOL   OW 3068   0.032   0.720   3.253
  976  SOL  HW1 3069   0.097   0.649   3.258
  976  SOL  HW2 3070   0.083   0.800   3.269
  977  SOL   OW 3071   0.163   0.206   1.700
  977  SOL  HW1 3072   0.234   0.163   1.651
  977  SOL  HW2 3073   0.104   0.238   1.632
  978  SOL   OW 3074   1.470   0.191   0.648
  978  SOL  HW1 3075   1.472   0.283   0.623
  978  SOL  HW2 3076   1.378   0.172   0.665
  979  SOL   OW 3077   2.180   1.850   2.534
  979  SOL  HW1 3078   2.235   1.805   2.470
  979  SOL  HW2 3079   2.148   1.779   2.591
  980  SOL   OW 3080   0.952   2.134   0.852
  980  SOL  HW1 3081   1.022   2.073   0.827
  980  SOL  HW2 3082   0.996   2.200   0.905
  981  SOL   OW 3083   1.861   3.474   1.459
  981  SOL  HW1 3084   1.889   3.385   1.436
  981  SOL  HW2 3085   1.818   3.506   1.379
  982  SOL   OW 3086   0.811   2.067   2.847
  982  SOL  HW1 3087   0.782   1.983   2.813
  982  SOL  HW2 3088   0.731   2.115   2.866
  983  SOL   OW 3089   2.346   1.367   2.746
  983  SOL  HW1 3090   2.373   1.288   2.793
  983  SOL  HW2 3091   2.400   1.367   2.667
  984  SOL   OW 3092   1.120   1.753   0.082
  984  SOL  HW1 3093   1.071   1.671   0.089
  984  SOL  HW2 3094   1.208   1.732   0.114
  985  SOL   OW 3095   1.665   1.263   1.354
  985  SOL  HW1 3096   1.606   1.202   1.309
  985  SOL  HW2 3097   1.717   1.302   1.284
  986  SOL   OW 3098   0.773   0.136   2.446
  986  SOL  HW1 3099   0.711   0.066   2.425
  986  SOL  HW2 3100   0.831   0.097   2.513
  987  SOL   OW 3101   2.505   0.321   1.499
  987  SOL  HW1 3102   2.483   0.410   1.524
  987  SOL  HW2 3103   2.464   0.309   1.413
  988  SOL   OW 3104   3.412   3.625   2.220
  988  SOL  HW1 3105   3.484   3.682   2.192
  988  SOL  HW2 3106   3.338   3.685   2.232
  989  SOL   OW 3107   2.110   2.222   0.963
  989  SOL  HW1 3108   2.153   2.161   0.903
  989  SOL  HW2 3109   2.146   2.202   1.049
  990  SOL   OW 3110   3.116   2.793   3.132
  990  SOL  HW1 3111   3.063   2.765   3.207
  990  SOL  HW2 3112   3.098   2.728   3.065
  991  SOL   OW 3113   0.894   1.495   3.165
  991  SOL  HW1 3114   0.811   1.467   3.126
  991  SOL  HW2 3115   0.961   1.452   3.111
  992  SOL   OW 3116   3.583   2.063   3.638
  992  SOL  HW1 3117   3.586   2.151   3.600
  992  SOL  HW2 3118   3.531   2.073   3.717
  993  SOL   OW 3119   2.447   2.994   0.664
  993  SOL  HW1 3120   2.367   3.007   0.716
  993  SOL  HW2 3121   2.425   3.027   0.578
  994  SOL   OW 3122   2.212   1.048   2.748
  994  SOL  HW1 3123   2.256   0.963   2.744
  994  SOL  HW2 3124   2.247   1.090   2.826
  995  SOL   OW 3125   3.132   2.067   1.357
  995  SOL  HW1 3126   3.049   2.020   1.356
  995  SOL  HW2 3127   3.115   2.145   1.409
  996  SOL   OW 3128   0.311   1.797   1.717
  996  SOL  HW1 3129   0.256   1.777   1.641
  996  SOL  HW2 3130   0.395   1.755   1.698
  997  SOL   OW 3131   3.165   2.681   1.398
  997  SOL  HW1 3132   3.202   2.762   1.361
  997  SOL  HW2 3133   3.197   2.612   1.341
  998  SOL   OW 3134   2.662   0.095   2.439
  998  SOL  HW1 3135   2.567   0.103   2.451
  998  SOL  HW2 3136   2.678   0.001   2.433
  999  SOL   OW 3137   1.208   3.122   2.128
  999  SOL  HW1 3138   1.240   3.045   2.081
  999  SOL  HW2 3139   1.169   3.087   2.208
 1000  SOL   OW 3140   1.189   3.513   2.944
 1000  SOL  HW1 3141   1.141   3.430   2.943
 1000  SOL  HW2 3142   1.281   3.487   2.941
 1001  SOL   OW 3143   0.859   1.169   0.663
 1001  SOL  HW1 3144   0.927   1.102   0.669
 1001  SOL  HW2 3145   0.853   1.189   0.569
 1002  SOL   OW 3146   1.204   0.383   1.266
 1002  SOL  HW1 3147   1.164   0.302   1.298
 1002  SOL  HW2 3148   1.141   0.451   1.290
 1003  SOL   OW 3149   2.323   2.976   1.745
 1003  SOL  HW1 3150   2.263   2.963   1.819
 1003  SOL  HW2 3151   2.393   3.031   1.781
 1004  SOL   OW 3152   2.531   0.968   0.001
 1004  SOL  HW1 3153   2.571   1.054  -0.012
 1004  SOL  HW2 3154   2.465   0.982   0.068
 1005  SOL   OW 3155   0.928   1.075   1.420
 1005  SOL  HW1 3156   0.990   1.014   1.460
 1005  SOL  HW2 3157   0.912   1.140   1.489
 1006  SOL   OW 3158   1.762   0.468   1.722
 1006  SOL  HW1 3159   1.698   0.412   1.765
 1006  SOL  HW2 3160   1.813   0.409   1.666
 1007  SOL   OW 3161   2.327   1.097   3.399
 1007  SOL  HW1 3162   2.381   1.141   3.465
 1007  SOL  HW2 3163   2.248   1.071   3.446
 1008  SOL   OW 3164   2.681   1.417   3.032
 1008  SOL  HW1 3165   2.695   1.377   2.946
 1008  SOL  HW2 3166   2.689   1.512   3.016
 1009  SOL   OW 3167   2.963   1.476   2.929
 1009  SOL  HW1 3168   2.920   1.429   3.000
 1009  SOL  HW2 3169   2.892   1.496   2.867
 1010  SOL   OW 3170   1.735   1.223   2.022
 1010  SOL  HW1 3171   1.771   1.221   2.111
 1010  SOL  HW2 3172   1.656   1.276   2.030
 1011  SOL   OW 3173   3.542   0.477   1.188
 1011  SOL  HW1 3174   3.631   0.512   1.199
 1011  SOL  HW2 3175   3.492   0.551   1.153
 1012  SOL   OW 3176   3.191   2.212   1.866
 1012  SOL  HW1 3177   3.167   2.303   1.849
 1012  SOL  HW2 3178   3.126   2.161   1.818
 1013  SOL   OW 3179   2.558   2.610   3.296
 1013  SOL  HW1 3180   2.575   2.609   3.390
 1013  SOL  HW2 3181   2.541   2.519   3.273
 1014  SOL   OW 3182   3.335   0.073   2.897
 1014  SOL  HW1 3183   3.294  -0.012   2.916
 1014  SOL  HW2 3184   3.410   0.051   2.843
 1015  SOL   OW 3185   3.604   0.119   1.675
 1015  SOL  HW1 3186   3.605   0.102   1.580
 1015  SOL  HW2 3187   3.671   0.061   1.711
 1016  SOL   OW 3188   2.846   2.704   1.328
 1016  SOL  HW1 3189   2.906   2.722   1.400
 1016  SOL  HW2 3190   2.901   2.712   1.249
 1017  SOL   OW 3191   0.674   1.038   1.646
 1017  SOL  HW1 3192   0.729   0.963   1.667
 1017  SOL  HW2 3193   0.734   1.112   1.644
 1018  SOL   OW 3194   2.421   2.536   2.767
 1018  SOL  HW1 3195   2.503   2.488   2.761
 1018  SOL  HW2 3196   2.368   2.486   2.828
 1019  SOL   OW 3197   3.305   1.127   3.114
 1019  SOL  HW1 3198   3.366   1.094   3.048
 1019  SOL  HW2 3199   3.221   1.086   3.090
 1020  SOL   OW 3200   2.358   3.434   1.762
 1020  SOL  HW1 3201   2.441   3.435   1.714
 1020  SOL  HW2 3202   2.301   3.377   1.710
 1021  SOL   OW 3203   0.879   0.694   3.048
 1021  SOL  HW1 3204   0.838   0.610   3.070
 1021  SOL  HW2 3205   0.866   0.704   2.954
 1022  SOL   OW 3206   2.287   3.271   1.971
 1022  SOL  HW1 3207   2.263   3.335   1.905
 1022  SOL  HW2 3208   2.368   3.232   1.938
 1023  SOL   OW 3209   3.427   0.318   2.687
 1023  SOL  HW1 3210   3.353   0.262   2.667
 1023  SOL  HW2 3211   3.503   0.260   2.684
 1024  SOL   OW 3212   2.976   0.932   0.786
 1024  SOL  HW1 3213   2.883   0.949   0.773
 1024  SOL  HW2 3214   2.980   0.866   0.855
 1025  SOL   OW 3215   3.658   3.270   2.937
 1025  SOL  HW1 3216   3.629   3.341   2.994
 1025  SOL  HW2 3217   3.583   3.251   2.882
 1026  SOL   OW 3218   1.847   3.665   2.012
 1026  SOL  HW1 3219   1.840   3.707   1.927
 1026  SOL  HW2 3220   1.912   3.596   2.000
 1027  SOL   OW 3221   1.408   3.050   2.401
 1027  SOL  HW1 3222   1.456   2.971   2.425
 1027  SOL  HW2 3223   1.334   3.051   2.462
 1028  SOL   OW 3224   0.898   2.815   2.650
 1028  SOL  HW1 3225   0.944   2.763   2.715
 1028  SOL  HW2 3226   0.810   2.827   2.686
 1029  SOL   OW 3227   0.369   1.344   1.727
 1029  SOL  HW1 3228   0.383   1.264   1.677
 1029  SOL  HW2 3229   0.274   1.355   1.732
 1030  SOL   OW 3230   1.728   1.280   2.458
 1030  SOL  HW1 3231   1.657   1.229   2.418
 1030  SOL  HW2 3232   1.775   1.218   2.513
 1031  SOL   OW 3233   1.467   1.932   0.755
 1031  SOL  HW1 3234   1.507   1.845   0.762
 1031  SOL  HW2 3235   1.406   1.924   0.682
 1032  SOL   OW 3236   0.358   2.768   0.082
 1032  SOL  HW1 3237   0.291   2.814   0.133
 1032  SOL  HW2 3238   0.384   2.695   0.138
 1033  SOL   OW 3239   0.356   3.361   0.915
 1033  SOL  HW1 3240   0.321   3.415   0.986
 1033  SOL  HW2 3241   0.400   3.289   0.960
 1034  SOL   OW 3242   0.659   3.122   1.455
 1034  SOL  HW1 3243   0.730   3.162   1.506
 1034  SOL  HW2 3244   0.701   3.048   1.411
 1035  SOL   OW 3245   0.849   3.678   0.270
 1035  SOL  HW1 3246   0.941   3.702   0.272
 1035  SOL  HW2 3247   0.848   3.584   0.251
 1036  SOL   OW 3248   0.203   3.024   1.518
 1036  SOL  HW1 3249   0.186   2.941   1.562
 1036  SOL  HW2 3250   0.195   3.090   1.586
 1037  SOL   OW 3251   0.467   2.207   1.059
 1037  SOL  HW1 3252   0.392   2.212   1.001
 1037  SOL  HW2 3253   0.498   2.117   1.051
 1038  SOL   OW 3254   1.024   3.124   1.322
 1038  SOL  HW1 3255   1.047   3.212   1.353
 1038  SOL  HW2 3256   0.958   3.139   1.254
 1039  SOL   OW 3257   1.578   1.174   1.618
 1039  SOL  HW1 3258   1.624   1.095   1.648
 1039  SOL  HW2 3259   1.593   1.175   1.523
 1040  SOL   OW 3260   2.833   3.448   2.180
 1040  SOL  HW1 3261   2.783   3.525   2.154
 1040  SOL  HW2 3262   2.817   3.384   2.111
 1041  SOL   OW 3263   0.621   3.446   1.602
 1041  SOL  HW1 3264   0.599   3.505   1.674
 1041  SOL  HW2 3265   0.540   3.442   1.550
 1042  SOL   OW 3266   0.752   0.184   3.538
 1042  SOL  HW1 3267   0.731   0.097   3.572
 1042  SOL  HW2 3268   0.789   0.167   3.451
 1043  SOL   OW 3269   1.815   1.259   2.767
 1043  SOL  HW1 3270   1.897   1.258   2.717
 1043  SOL  HW2 3271   1.772   1.177   2.745
 1044  SOL   OW 3272   3.547   2.543   2.046
 1044  SOL  HW1 3273   3.562   2.520   2.138
 1044  SOL  HW2 3274   3.548   2.460   2.000
 1045  SOL   OW 3275   0.452   0.277   0.914
 1045  SOL  HW1 3276   0.473   0.246   0.826
 1045  SOL  HW2 3277   0.357   0.262   0.922
 1046  SOL   OW 3278   0.821   2.262   0.550
 1046  SOL  HW1 3279   0.862   2.176   0.537
 1046  SOL  HW2 3280   0.873   2.303   0.619
 1047  SOL   OW 3281   0.188   3.196   1.988
 1047  SOL  HW1 3282   0.261   3.257   1.986
 1047  SOL  HW2 3283   0.205   3.140   2.064
 1048  SOL   OW 3284   1.631   1.264   3.279
 1048  SOL  HW1 3285   1.554   1.207   3.289
 1048  SOL  HW2 3286   1.594   1.352   3.267
 1049  SOL   OW 3287   1.120   3.145   1.748
 1049  SOL  HW1 3288   1.200   3.151   1.697
 1049  SOL  HW2 3289   1.133   3.206   1.821
 1050  SOL   OW 3290   1.678   1.142   3.057
 1050  SOL  HW1 3291   1.673   1.186   3.142
 1050  SOL  HW2 3292   1.769   1.154   3.029
 1051  SOL   OW 3293   0.012   2.592   3.003
 1051  SOL  HW1 3294  -0.002   2.506   3.042
 1051  SOL  HW2 3295   0.007   2.653   3.077
 1052  SOL   OW 3296   1.449   1.910   0.306
 1052  SOL  HW1 3297   1.379   1.935   0.367
 1052  SOL  HW2 3298   1.517   1.976   0.320
 1053  SOL   OW 3299   2.145   0.817   2.020
 1053  SOL  HW1 3300   2.089   0.752   1.979
 1053  SOL  HW2 3301   2.166   0.781   2.106
 1054  SOL   OW 3302   1.288   0.980   2.448
 1054  SOL  HW1 3303   1.286   1.056   2.506
 1054  SOL  HW2 3304   1.302   0.906   2.506
 1055  SOL   OW 3305   3.520   0.744   0.399
 1055  SOL  HW1 3306   3.534   0.700   0.315
 1055  SOL  HW2 3307   3.438   0.707   0.432
 1056  SOL   OW 3308   0.809   0.796   1.425
 1056  SOL  HW1 3309   0.778   0.706   1.416
 1056  SOL  HW2 3310   0.761   0.829   1.501
 1057  SOL   OW 3311   3.394   1.050   2.381
 1057  SOL  HW1 3312   3.349   1.121   2.426
 1057  SOL  HW2 3313   3.456   1.016   2.447
 1058  SOL   OW 3314   1.135   2.666   3.202
 1058  SOL  HW1 3315   1.190   2.721   3.147
 1058  SOL  HW2 3316   1.135   2.580   3.160
 1059  SOL   OW 3317   0.321   2.878   2.954
 1059  SOL  HW1 3318   0.267   2.819   2.902
 1059  SOL  HW2 3319   0.320   2.841   3.042
 1060  SOL   OW 3320   0.094   3.495   3.452
 1060  SOL  HW1 3321   0.099   3.590   3.462
 1060  SOL  HW2 3322   0.014   3.470   3.498
 1061  SOL   OW 3323   0.524   0.320   2.403
 1061  SOL  HW1 3324   0.507   0.235   2.442
 1061  SOL  HW2 3325   0.611   0.344   2.435
 1062  SOL   OW 3326   0.738   0.124   3.050
 1062  SOL  HW1 3327   0.740   0.042   3.000
 1062  SOL  HW2 3328   0.687   0.103   3.128
 1063  SOL   OW 3329   2.887   1.860   3.239
 1063  SOL  HW1 3330   2.975   1.895   3.248
 1063  SOL  HW2 3331   2.878   1.797   3.311
 1064  SOL   OW 3332   0.665   1.438   1.523
 1064  SOL  HW1 3333   0.631   1.401   1.442
 1064  SOL  HW2 3334   0.590   1.436   1.583
 1065  SOL   OW 3335   0.277   0.836   0.036
 1065  SOL  HW1 3336   0.288   0.788  -0.046
 1065  SOL  HW2 3337   0.311   0.923   0.017
 1066  SOL   OW 3338   1.730   1.609   0.240
 1066  SOL  HW1 3339   1.775   1.691   0.262
 1066  SOL  HW2 3340   1.801   1.546   0.228
 1067  SOL   OW 3341   3.408   3.433   0.125
 1067  SOL  HW1 3342   3.384   3.341   0.140
 1067  SOL  HW2 3343   3.481   3.449   0.184
 1068  SOL   OW 3344   0.930   0.025   2.137
 1068  SOL  HW1 3345   0.950  -0.021   2.055
 1068  SOL  HW2 3346   0.912   0.115   2.110
 1069  SOL   OW 3347   0.326   0.038   0.280
 1069  SOL  HW1 3348   0.314   0.064   0.371
 1069  SOL  HW2 3349   0.243   0.059   0.237
 1070  SOL   OW 3350   0.633   0.365   0.378
 1070  SOL  HW1 3351   0.607   0.428   0.446
 1070  SOL  HW2 3352   0.551   0.345   0.332
 1071  SOL   OW 3353   1.873   2.303   2.753
 1071  SOL  HW1 3354   1.934   2.250   2.703
 1071  SOL  HW2 3355   1.881   2.270   2.843
 1072  SOL   OW 3356   1.615   0.928   0.617
 1072  SOL  HW1 3357   1.662   1.011   0.620
 1072  SOL  HW2 3358   1.656   0.880   0.545
 1073  SOL   OW 3359   1.031   1.842   0.678
 1073  SOL  HW1 3360   1.088   1.891   0.737
 1073  SOL  HW2 3361   1.001   1.767   0.731
 1074  SOL   OW 3362   2.343   0.309   3.566
 1074  SOL  HW1 3363   2.427   0.345   3.539
 1074  SOL  HW2 3364   2.303   0.378   3.619
 1075  SOL   OW 3365   0.626   1.034   0.746
 1075  SOL  HW1 3366   0.590   1.100   0.805
 1075  SOL  HW2 3367   0.718   1.056   0.738
 1076  SOL   OW 3368   2.619   0.185   2.760
 1076  SOL  HW1 3369   2.696   0.170   2.816
 1076  SOL  HW2 3370   2.656   0.220   2.679
 1077  SOL   OW 3371   1.078   0.947   3.006
 1077  SOL  HW1 3372   1.012   0.928   2.939
 1077  SOL  HW2 3373   1.156   0.970   2.955
 1078  SOL   OW 3374   0.453   0.288   0.195
 1078  SOL  HW1 3375   0.535   0.297   0.146
 1078  SOL  HW2 3376   0.392   0.250   0.132
 1079  SOL   OW 3377   2.451   0.578   1.627
 1079  SOL  HW1 3378   2.393   0.639   1.581
 1079  SOL  HW2 3379   2.423   0.581   1.718
 1080  SOL   OW 3380   3.610   3.393   2.639
 1080  SOL  HW1 3381   3.630   3.461   2.575
 1080  SOL  HW2 3382   3.563   3.439   2.709
 1081  SOL   OW 3383   1.940   1.159   3.010
 1081  SOL  HW1 3384   1.980   1.167   2.923
 1081  SOL  HW2 3385   1.977   1.231   3.060
 1082  SOL   OW 3386   0.476   3.586   2.596
 1082  SOL  HW1 3387   0.392   3.595   2.552
 1082  SOL  HW2 3388   0.535   3.645   2.549
 1083  SOL   OW 3389   1.711   3.015   3.438
 1083  SOL  HW1 3390   1.650   3.052   3.375
 1083  SOL  HW2 3391   1.780   2.977   3.385
 1084  SOL   OW 3392   2.976   2.739   0.720
 1084  SOL  HW1 3393   3.061   2.725   0.676
 1084  SOL  HW2 3394   2.926   2.792   0.658
 1085  SOL   OW 3395   2.494   1.238   1.594
 1085  SOL  HW1 3396   2.544   1.311   1.632
 1085  SOL  HW2 3397   2.415   1.279   1.559
 1086  SOL   OW 3398   2.073   2.205   3.192
 1086  SOL  HW1 3399   2.031   2.143   3.252
 1086  SOL  HW2 3400   2.121   2.151   3.130
 1087  SOL   OW 3401   1.267   1.304   0.528
 1087  SOL  HW1 3402   1.286   1.292   0.434
 1087  SOL  HW2 3403   1.281   1.217   0.566
 1088  SOL   OW 3404   0.098   2.400   1.370
 1088  SOL  HW1 3405   0.108   2.345   1.448
 1088  SOL  HW2 3406   0.153   2.357   1.304
 1089  SOL   OW 3407   2.709   2.683   2.611
 1089  SOL  HW1 3408   2.711   2.686   2.707
 1089  SOL  HW2 3409   2.685   2.593   2.590
 1090  SOL   OW 3410   1.123   0.661   3.466
 1090  SOL  HW1 3411   1.069   0.740   3.463
 1090  SOL  HW2 3412   1.061   0.589   3.453
 1091  SOL   OW 3413   3.285   0.354   1.268
 1091  SOL  HW1 3414   3.269   0.277   1.323
 1091  SOL  HW2 3415   3.361   0.396   1.307
 1092  SOL   OW 3416   1.072   0.259   2.025
 1092  SOL  HW1 3417   1.020   0.262   1.944
 1092  SOL  HW2 3418   1.095   0.350   2.042
 1093  SOL   OW 3419   3.536   2.323   0.554
 1093  SOL  HW1 3420   3.532   2.232   0.523
 1093  SOL  HW2 3421   3.618   2.356   0.517
 1094  SOL   OW 3422   2.283   1.148   2.974
 1094  SOL  HW1 3423   2.270   1.058   3.005
 1094  SOL  HW2 3424   2.343   1.186   3.037
 1095  SOL   OW 3425   0.071   1.298   2.420
 1095  SOL  HW1 3426  -0.007   1.289   2.365
 1095  SOL  HW2 3427   0.109   1.211   2.423
 1096  SOL   OW 3428   1.514   1.914   3.392
 1096  SOL  HW1 3429   1.423   1.885   3.396
 1096  SOL  HW2 3430   1.510   2.002   3.355
 1097  SOL   OW 3431   1.775   0.507   2.256
 1097  SOL  HW1 3432   1.802   0.569   2.323
 1097  SOL  HW2 3433   1.856   0.468   2.224
 1098  SOL   OW 3434   3.255   3.709   1.263
 1098  SOL  HW1 3435   3.289   3.775   1.324
 1098  SOL  HW2 3436   3.276   3.625   1.304
 1099  SOL   OW 3437   1.992   0.213   0.199
 1099  SOL  HW1 3438   1.942   0.239   0.122
 1099  SOL  HW2 3439   1.945   0.251   0.273
 1100  SOL   OW 3440   3.458   1.619   3.297
 1100  SOL  HW1 3441   3.474   1.525   3.287
 1100  SOL  HW2 3442   3.530   1.650   3.351
 1101  SOL   OW 3443   0.584   1.967   0.257
 1101  SOL  HW1 3444   0.501   1.965   0.208
 1101  SOL  HW2 3445   0.562   2.010   0.340
 1102  SOL   OW 3446   2.059   1.100   0.895
 1102  SOL  HW1 3447   2.055   1.016   0.940
 1102  SOL  HW2 3448   2.105   1.081   0.813
 1103  SOL   OW 3449   0.998   3.573   1.299
 1103  SOL  HW1 3450   1.063   3.510   1.328
 1103  SOL  HW2 3451   1.048   3.641   1.256
 1104  SOL   OW 3452   2.552   0.585   3.255
 1104  SOL  HW1 3453   2.601   0.565   3.335
 1104  SOL  HW2 3454   2.476   0.634   3.285
 1105  SOL   OW 3455   3.578   0.306   0.533
 1105  SOL  HW1 3456   3.485   0.322   0.550
 1105  SOL  HW2 3457   3.623   0.369   0.589
 1106  SOL   OW 3458   2.238   2.788   0.473
 1106  SOL  HW1 3459   2.233   2.831   0.558
 1106  SOL  HW2 3460   2.223   2.695   0.492
 1107  SOL   OW 3461   2.053   0.218   3.603
 1107  SOL  HW1 3462   2.064   0.123   3.594
 1107  SOL  HW2 3463   2.139   0.249   3.632
 1108  SOL   OW 3464   1.037   2.986   1.556
 1108  SOL  HW1 3465   1.032   3.047   1.630
 1108  SOL  HW2 3466   1.030   3.041   1.478
 1109  SOL   OW 3467   1.589   3.528   1.758
 1109  SOL  HW1 3468   1.501   3.529   1.794
 1109  SOL  HW2 3469   1.577   3.528   1.663
 1110  SOL   OW 3470   3.710   1.790   3.179
 1110  SOL  HW1 3471   3.667   1.814   3.097
 1110  SOL  HW2 3472   3.740   1.874   3.215
 1111  SOL   OW 3473   3.529   0.299   3.671
 1111  SOL  HW1 3474   3.476   0.238   3.619
 1111  SOL  HW2 3475   3.549   0.252   3.752
 1112  SOL   OW 3476   1.532   2.410   0.817
 1112  SOL  HW1 3477   1.556   2.319   0.835
 1112  SOL  HW2 3478   1.570   2.428   0.731
 1113  SOL   OW 3479   1.946   3.676   1.149
 1113  SOL  HW1 3480   1.906   3.624   1.079
 1113  SOL  HW2 3481   1.946   3.766   1.115
 1114  SOL   OW 3482   0.447   2.629   3.115
 1114  SOL  HW1 3483   0.481   2.587   3.036
 1114  SOL  HW2 3484   0.507   2.602   3.185
 1115  SOL   OW 3485   2.497   0.423   0.299
 1115  SOL  HW1 3486   2.537   0.439   0.214
 1115  SOL  HW2 3487   2.534   0.339   0.328
 1116  SOL   OW 3488   1.202   2.879   2.261
 1116  SOL  HW1 3489   1.217   2.851   2.351
 1116  SOL  HW2 3490   1.289   2.879   2.221
 1117  SOL   OW 3491   1.516   3.112   3.272
 1117  SOL  HW1 3492   1.449   3.173   3.304
 1117  SOL  HW2 3493   1.469   3.033   3.249
 1118  SOL   OW 3494   1.773   1.748   1.790
 1118  SOL  HW1 3495   1.812   1.819   1.740
 1118  SOL  HW2 3496   1.821   1.670   1.761
 1119  SOL   OW 3497   0.964   1.801   3.046
 1119  SOL  HW1 3498   0.951   1.728   2.986
 1119  SOL  HW2 3499   0.878   1.814   3.086
 1120  SOL   OW 3500   0.125   1.812   3.512
 1120  SOL  HW1 3501   0.193   1.863   3.557
 1120  SOL  HW2 3502   0.098   1.868   3.439
 1121  SOL   OW 3503   3.286   1.329   3.287
 1121  SOL  HW1 3504   3.290   1.243   3.246
 1121  SOL  HW2 3505   3.248   1.386   3.220
 1122  SOL   OW 3506   1.103   2.808   0.437
 1122  SOL  HW1 3507   1.022   2.852   0.460
 1122  SOL  HW2 3508   1.080   2.715   0.436
 1123  SOL   OW 3509   0.670   3.564   2.975
 1123  SOL  HW1 3510   0.585   3.579   3.015
 1123  SOL  HW2 3511   0.694   3.475   3.000
 1124  SOL   OW 3512   2.431   3.417   2.149
 1124  SOL  HW1 3513   2.367   3.373   2.094
 1124  SOL  HW2 3514   2.459   3.350   2.212
 1125  SOL   OW 3515   1.905   2.818   2.800
 1125  SOL  HW1 3516   1.871   2.844   2.886
 1125  SOL  HW2 3517   1.831   2.829   2.741
 1126  SOL   OW 3518   3.502   3.537   2.850
 1126  SOL  HW1 3519   3.508   3.609   2.787
 1126  SOL  HW2 3520   3.480   3.579   2.933
 1127  SOL   OW 3521   2.621   2.639   1.186
 1127  SOL  HW1 3522   2.698   2.684   1.221
 1127  SOL  HW2 3523   2.653   2.552   1.163
 1128  SOL   OW 3524   0.071   1.004   2.718
 1128  SOL  HW1 3525   0.126   0.993   2.795
 1128  SOL  HW2 3526   0.128   1.048   2.655
 1129  SOL   OW 3527   2.416   1.304   0.293
 1129  SOL  HW1 3528   2.346   1.369   0.298
 1129  SOL  HW2 3529   2.414   1.274   0.202
 1130  SOL   OW 3530   2.623   0.504   2.110
 1130  SOL  HW1 3531   2.619   0.541   2.022
 1130  SOL  HW2 3532   2.631   0.409   2.096
 1131  SOL   OW 3533   3.634   0.908   0.121
 1131  SOL  HW1 3534   3.614   0.817   0.143
 1131  SOL  HW2 3535   3.653   0.907   0.028
 1132  SOL   OW 3536   2.152   1.105   1.998
 1132  SOL  HW1 3537   2.091   1.168   2.035
 1132  SOL  HW2 3538   2.105   1.022   2.001
 1133  SOL   OW 3539   2.490   3.155   2.261
 1133  SOL  HW1 3540   2.416   3.122   2.210
 1133  SOL  HW2 3541   2.558   3.089   2.250
 1134  SOL   OW 3542   0.692   2.124  -0.023
 1134  SOL  HW1 3543   0.785   2.117  -0.001
 1134  SOL  HW2 3544   0.647   2.079   0.049
 1135  SOL   OW 3545   0.070   3.438   0.602
 1135  SOL  HW1 3546   0.138   3.467   0.541
 1135  SOL  HW2 3547   0.103   3.354   0.636
 1136  SOL   OW 3548   3.299   2.259   3.158
 1136  SOL  HW1 3549   3.386   2.257   3.118
 1136  SOL  HW2 3550   3.262   2.343   3.130
 1137  SOL   OW 3551   3.426   2.437   0.335
 1137  SOL  HW1 3552   3.441   2.400   0.422
 1137  SOL  HW2 3553   3.468   2.522   0.338
 1138  SOL   OW 3554   1.141   2.421   3.019
 1138  SOL  HW1 3555   1.215   2.421   2.957
 1138  SOL  HW2 3556   1.161   2.349   3.079
 1139  SOL   OW 3557   1.652   2.145   0.324
 1139  SOL  HW1 3558   1.725   2.162   0.384
 1139  SOL  HW2 3559   1.581   2.202   0.355
 1140  SOL   OW 3560   0.836   2.752   0.971
 1140  SOL  HW1 3561   0.787   2.696   1.031
 1140  SOL  HW2 3562   0.927   2.729   0.984
 1141  SOL   OW 3563   1.242   1.009   0.105
 1141  SOL  HW1 3564   1.160   1.012   0.057
 1141  SOL  HW2 3565   1.308   0.985   0.040
 1142  SOL   OW 3566   0.285   1.559   1.218
 1142  SOL  HW1 3567   0.377   1.553   1.191
 1142  SOL  HW2 3568   0.251   1.471   1.206
 1143  SOL   OW 3569   3.549   1.031   2.958
 1143  SOL  HW1 3570   3.594   0.951   2.986
 1143  SOL  HW2 3571   3.612   1.076   2.903
 1144  SOL   OW 3572   1.233   3.047   0.845
 1144  SOL  HW1 3573   1.256   2.975   0.786
 1144  SOL  HW2 3574   1.147   3.077   0.814
 1145  SOL   OW 3575   2.140   3.549   0.112
 1145  SOL  HW1 3576   2.079   3.502   0.168
 1145  SOL  HW2 3577   2.087   3.579   0.038
 1146  SOL   OW 3578   3.457   1.378   1.549
 1146  SOL  HW1 3579   3.517   1.359   1.477
 1146  SOL  HW2 3580   3.504   1.353   1.628
 1147  SOL   OW 3581   0.748   0.225   1.590
 1147  SOL  HW1 3582   0.681   0.248   1.526
 1147  SOL  HW2 3583   0.760   0.130   1.579
 1148  SOL   OW 3584   3.468   0.418   3.359
 1148  SOL  HW1 3585   3.505   0.382   3.440
 1148  SOL  HW2 3586   3.374   0.402   3.367
 1149  SOL   OW 3587   0.862   0.285   0.508
 1149  SOL  HW1 3588   0.887   0.343   0.580
 1149  SOL  HW2 3589   0.802   0.338   0.455
 1150  SOL   OW 3590   0.509   0.159   2.616
 1150  SOL  HW1 3591   0.574   0.106   2.662
 1150  SOL  HW2 3592   0.494   0.234   2.673
 1151  SOL   OW 3593   2.039   0.553   1.621
 1151  SOL  HW1 3594   2.074   0.636   1.589
 1151  SOL  HW2 3595   1.980   0.578   1.693
 1152  SOL   OW 3596   2.375   3.207   3.341
 1152  SOL  HW1 3597   2.349   3.116   3.353
 1152  SOL  HW2 3598   2.347   3.251   3.421
 1153  SOL   OW 3599   2.976   1.003   1.083
 1153  SOL  HW1 3600   3.064   1.001   1.047
 1153  SOL  HW2 3601   2.920   0.975   1.011
 1154  SOL   OW 3602   1.854   1.677   1.429
 1154  SOL  HW1 3603   1.840   1.754   1.485
 1154  SOL  HW2 3604   1.803   1.696   1.350
 1155  SOL   OW 3605   1.034   0.172   0.280
 1155  SOL  HW1 3606   0.960   0.218   0.319
 1155  SOL  HW2 3607   1.105   0.182   0.344
 1156  SOL   OW 3608   2.216   2.102   0.341
 1156  SOL  HW1 3609   2.152   2.032   0.325
 1156  SOL  HW2 3610   2.209   2.160   0.265
 1157  SOL   OW 3611   2.556   1.482   2.575
 1157  SOL  HW1 3612   2.558   1.415   2.506
 1157  SOL  HW2 3613   2.614   1.447   2.643
 1158  SOL   OW 3614   0.212   3.283   2.349
 1158  SOL  HW1 3615   0.155   3.258   2.276
 1158  SOL  HW2 3616   0.221   3.378   2.340
 1159  SOL   OW 3617   0.098   3.494   1.469
 1159  SOL  HW1 3618   0.059   3.565   1.520
 1159  SOL  HW2 3619   0.029   3.427   1.466
 1160  SOL   OW 3620  -0.014   2.697   2.465
 1160  SOL  HW1 3621  -0.026   2.777   2.413
 1160  SOL  HW2 3622   0.079   2.698   2.490
 1161  SOL   OW 3623   3.413   1.070   0.117
 1161  SOL  HW1 3624   3.428   1.087   0.024
 1161  SOL  HW2 3625   3.463   0.991   0.135
 1162  SOL   OW 3626   2.762   0.667   2.884
 1162  SOL  HW1 3627   2.688   0.680   2.825
 1162  SOL  HW2 3628   2.839   0.680   2.829
 1163  SOL   OW 3629   2.198   1.475   0.346
 1163  SOL  HW1 3630   2.238   1.494   0.431
 1163  SOL  HW2 3631   2.145   1.552   0.327
 1164  SOL   OW 3632   0.323   0.419   2.974
 1164  SOL  HW1 3633   0.340   0.492   3.033
 1164  SOL  HW2 3634   0.227   0.412   2.971
 1165  SOL   OW 3635   3.276   0.621   0.470
 1165  SOL  HW1 3636   3.274   0.536   0.514
 1165  SOL  HW2 3637   3.214   0.675   0.519
 1166  SOL   OW 3638   1.615   2.027   3.008
 1166  SOL  HW1 3639   1.525   2.046   2.980
 1166  SOL  HW2 3640   1.669   2.051   2.932
 1167  SOL   OW 3641   1.199   1.460   2.304
 1167  SOL  HW1 3642   1.182   1.480   2.396
 1167  SOL  HW2 3643   1.113   1.436   2.268
 1168  SOL   OW 3644   3.000   0.866   2.404
 1168  SOL  HW1 3645   2.926   0.820   2.366
 1168  SOL  HW2 3646   3.047   0.902   2.329
 1169  SOL   OW 3647   1.226   3.683   0.117
 1169  SOL  HW1 3648   1.170   3.750   0.077
 1169  SOL  HW2 3649   1.307   3.687   0.066
 1170  SOL   OW 3650   2.633   0.637   2.423
 1170  SOL  HW1 3651   2.623   0.599   2.510
 1170  SOL  HW2 3652   2.713   0.598   2.389
 1171  SOL   OW 3653   1.425   0.488   0.335
 1171  SOL  HW1 3654   1.380   0.477   0.252
 1171  SOL  HW2 3655   1.484   0.413   0.341
 1172  SOL   OW 3656   2.743   1.111   2.586
 1172  SOL  HW1 3657   2.804   1.127   2.515
 1172  SOL  HW2 3658   2.783   1.041   2.637
 1173  SOL   OW 3659   3.297   3.393   2.317
 1173  SOL  HW1 3660   3.212   3.438   2.313
 1173  SOL  HW2 3661   3.361   3.462   2.300
 1174  SOL   OW 3662   1.216   2.166   0.163
 1174  SOL  HW1 3663   1.140   2.178   0.219
 1174  SOL  HW2 3664   1.291   2.173   0.223
 1175  SOL   OW 3665   2.736   3.569   1.407
 1175  SOL  HW1 3666   2.643   3.559   1.426
 1175  SOL  HW2 3667   2.762   3.484   1.373
 1176  SOL   OW 3668   3.041   0.919   0.254
 1176  SOL  HW1 3669   3.003   1.004   0.231
 1176  SOL  HW2 3670   3.017   0.861   0.182
 1177  SOL   OW 3671   2.915   3.502   3.537
 1177  SOL  HW1 3672   2.858   3.511   3.461
 1177  SOL  HW2 3673   2.873   3.435   3.591
 1178  SOL   OW 3674   3.108   2.477   0.788
 1178  SOL  HW1 3675   3.141   2.544   0.848
 1178  SOL  HW2 3676   3.059   2.416   0.844
 1179  SOL   OW 3677   0.900   1.528   3.670
 1179  SOL  HW1 3678   0.866   1.481   3.594
 1179  SOL  HW2 3679   0.828   1.586   3.695
 1180  SOL   OW 3680   0.501   1.406   1.142
 1180  SOL  HW1 3681   0.439   1.361   1.086
 1180  SOL  HW2 3682   0.515   1.347   1.216
 1181  SOL   OW 3683   0.324   0.790   2.768
 1181  SOL  HW1 3684   0.359   0.868   2.724
 1181  SOL  HW2 3685   0.292   0.735   2.698
 1182  SOL   OW 3686   3.284   0.727   3.120
 1182  SOL  HW1 3687   3.239   0.679   3.189
 1182  SOL  HW2 3688   3.335   0.794   3.167
 1183  SOL   OW 3689   2.898   0.332   3.300
 1183  SOL  HW1 3690   2.820   0.348   3.353
 1183  SOL  HW2 3691   2.873   0.361   3.212
 1184  SOL   OW 3692   1.636   2.447   0.276
 1184  SOL  HW1 3693   1.615   2.397   0.197
 1184  SOL  HW2 3694   1.704   2.509   0.247
 1185  SOL   OW 3695   2.611   0.111   3.455
 1185  SOL  HW1 3696   2.584   0.167   3.383
 1185  SOL  HW2 3697   2.541   0.118   3.520
 1186  SOL   OW 3698   2.064   1.954   1.009
 1186  SOL  HW1 3699   1.975   1.956   0.973
 1186  SOL  HW2 3700   2.051   1.963   1.103
 1187  SOL   OW 3701   0.972   3.716   2.580
 1187  SOL  HW1 3702   1.052   3.665   2.584
 1187  SOL  HW2 3703   0.905   3.653   2.552
 1188  SOL   OW 3704   2.253   1.332   1.514
 1188  SOL  HW1 3705   2.162   1.319   1.538
 1188  SOL  HW2 3706   2.257   1.311   1.421
 1189  SOL   OW 3707   2.782   0.379   1.611
 1189  SOL  HW1 3708   2.795   0.381   1.706
 1189  SOL  HW2 3709   2.688   0.364   1.599
 1190  SOL   OW 3710   2.433   3.689   0.696
 1190  SOL  HW1 3711   2.346   3.728   0.706
 1190  SOL  HW2 3712   2.478   3.710   0.778
 1191  SOL   OW 3713   2.323   1.508   1.889
 1191  SOL  HW1 3714   2.232   1.479   1.876
 1191  SOL  HW2 3715   2.357   1.520   1.800
 1192  SOL   OW 3716   3.446   2.339   1.631
 1192  SOL  HW1 3717   3.407   2.369   1.713
 1192  SOL  HW2 3718   3.480   2.252   1.651
 1193  SOL   OW 3719   2.904   1.659   1.544
 1193  SOL  HW1 3720   2.976   1.613   1.501
 1193  SOL  HW2 3721   2.938   1.682   1.631
 1194  SOL   OW 3722   2.933   1.972   0.608
 1194  SOL  HW1 3723   2.981   2.025   0.672
 1194  SOL  HW2 3724   2.906   1.894   0.657
 1195  SOL   OW 3725   2.516   3.162   1.833
 1195  SOL  HW1 3726   2.563   3.099   1.887
 1195  SOL  HW2 3727   2.577   3.183   1.762
 1196  SOL   OW 3728   1.863   2.885   0.478
 1196  SOL  HW1 3729   1.895   2.864   0.390
 1196  SOL  HW2 3730   1.911   2.826   0.536
 1197  SOL   OW 3731   1.925   1.987   3.266
 1197  SOL  HW1 3732   1.962   1.922   3.206
 1197  SOL  HW2 3733   1.884   1.936   3.336
 1198  SOL   OW 3734   3.583   3.673   3.305
 1198  SOL  HW1 3735   3.619   3.761   3.297
 1198  SOL  HW2 3736   3.513   3.681   3.369
 1199  SOL   OW 3737   2.269  -0.003   3.341
 1199  SOL  HW1 3738   2.328   0.060   3.382
 1199  SOL  HW2 3739   2.238   0.042   3.262
 1200  SOL   OW 3740   0.439   2.323   3.268
 1200  SOL  HW1 3741   0.357   2.342   3.223
 1200  SOL  HW2 3742   0.491   2.402   3.259
 1201  SOL   OW 3743   1.691   0.616   1.298
 1201  SOL  HW1 3744   1.613   0.564   1.277
 1201  SOL  HW2 3745   1.747   0.556   1.347
 1202  SOL   OW 3746   2.378   1.459   1.004
 1202  SOL  HW1 3747   2.304   1.496   1.051
 1202  SOL  HW2 3748   2.359   1.365   0.997
 1203  SOL   OW 3749   3.210   0.077   2.263
 1203  SOL  HW1 3750   3.223   0.169   2.289
 1203  SOL  HW2 3751   3.124   0.055   2.298
 1204  SOL   OW 3752   1.885   0.062   0.708
 1204  SOL  HW1 3753   1.836   0.134   0.668
 1204  SOL  HW2 3754   1.903   0.002   0.636
 1205  SOL   OW 3755   3.226   3.157   3.096
 1205  SOL  HW1 3756   3.300   3.200   3.139
 1205  SOL  HW2 3757   3.261   3.076   3.061
 1206  SOL   OW 3758   3.547   0.038   2.720
 1206  SOL  HW1 3759   3.640   0.025   2.703
 1206  SOL  HW2 3760   3.504   0.022   2.636
 1207  SOL   OW 3761   2.765   0.181   1.177
 1207  SOL  HW1 3762   2.763   0.272   1.208
 1207  SOL  HW2 3763   2.833   0.179   1.110
 1208  SOL   OW 3764   0.157   2.711   2.790
 1208  SOL  HW1 3765   0.094   2.665   2.847
 1208  SOL  HW2 3766   0.107   2.783   2.753
 1209  SOL   OW 3767   0.511   2.248   0.734
 1209  SOL  HW1 3768   0.439   2.245   0.797
 1209  SOL  HW2 3769   0.574   2.183   0.766
 1210  SOL   OW 3770   2.942   0.287   2.133
 1210  SOL  HW1 3771   2.991   0.369   2.126
 1210  SOL  HW2 3772   2.939   0.268   2.227
 1211  SOL   OW 3773   2.708   3.288   0.179
 1211  SOL  HW1 3774   2.792   3.331   0.190
 1211  SOL  HW2 3775   2.672   3.284   0.268
 1212  SOL   OW 3776   0.980   2.391   0.024
 1212  SOL  HW1 3777   0.974   2.441   0.105
 1212  SOL  HW2 3778   0.981   2.299   0.052
 1213  SOL   OW 3779   3.083   3.582   0.617
 1213  SOL  HW1 3780   3.015   3.561   0.553
 1213  SOL  HW2 3781   3.063   3.526   0.692
 1214  SOL   OW 3782   2.265   3.086   2.634
 1214  SOL  HW1 3783   2.238   3.098   2.725
 1214  SOL  HW2 3784   2.243   3.168   2.591
 1215  SOL   OW 3785   1.738   1.650   2.181
 1215  SOL  HW1 3786   1.831   1.661   2.162
 1215  SOL  HW2 3787   1.698   1.635   2.095
 1216  SOL   OW 3788   2.541   2.861   2.473
 1216  SOL  HW1 3789   2.587   2.817   2.543
 1216  SOL  HW2 3790   2.607   2.876   2.405
 1217  SOL   OW 3791   2.304   1.483   0.631
 1217  SOL  HW1 3792   2.353   1.566   0.627
 1217  SOL  HW2 3793   2.368   1.420   0.666
 1218  SOL   OW 3794   0.478   2.231   3.559
 1218  SOL  HW1 3795   0.509   2.300   3.500
 1218  SOL  HW2 3796   0.543   2.229   3.629
 1219  SOL   OW 3797   2.498   2.602   0.767
 1219  SOL  HW1 3798   2.573   2.644   0.724
 1219  SOL  HW2 3799   2.518   2.509   0.765
 1220  SOL   OW 3800   2.355   2.304   0.502
 1220  SOL  HW1 3801   2.345   2.297   0.597
 1220  SOL  HW2 3802   2.329   2.217   0.469
 1221  SOL   OW 3803   1.747   1.952   0.126
 1221  SOL  HW1 3804   1.698   2.028   0.157
 1221  SOL  HW2 3805   1.694   1.918   0.053
 1222  SOL   OW 3806   3.234   0.351   2.293
 1222  SOL  HW1 3807   3.192   0.415   2.235
 1222  SOL  HW2 3808   3.194   0.367   2.379
 1223  SOL   OW 3809   0.935   2.317   2.737
 1223  SOL  HW1 3810   1.026   2.300   2.762
 1223  SOL  HW2 3811   0.889   2.236   2.758
 1224  SOL   OW 3812   3.495   0.544   3.096
 1224  SOL  HW1 3813   3.463   0.512   3.180
 1224  SOL  HW2 3814   3.422   0.529   3.036
 1225  SOL   OW 3815   3.368   1.673   1.756
 1225  SOL  HW1 3816   3.392   1.657   1.665
 1225  SOL  HW2 3817   3.442   1.723   1.791
 1226  SOL   OW 3818   3.637   2.380   3.595
 1226  SOL  HW1 3819   3.624   2.474   3.590
 1226  SOL  HW2 3820   3.676   2.365   3.682
 1227  SOL   OW 3821   2.643   0.280   0.817
 1227  SOL  HW1 3822   2.706   0.325   0.873
 1227  SOL  HW2 3823   2.598   0.219   0.876
 1228  SOL   OW 3824   2.637   1.945   3.213
 1228  SOL  HW1 3825   2.730   1.925   3.205
 1228  SOL  HW2 3826   2.598   1.862   3.242
 1229  SOL   OW 3827   3.007   0.333   1.430
 1229  SOL  HW1 3828   2.979   0.242   1.431
 1229  SOL  HW2 3829   2.937   0.380   1.476
 1230  SOL   OW 3830   1.638   2.058   1.175
 1230  SOL  HW1 3831   1.706   2.125   1.163
 1230  SOL  HW2 3832   1.649   2.029   1.266
 1231  SOL   OW 3833   2.691   2.460   2.832
 1231  SOL  HW1 3834   2.725   2.390   2.888
 1231  SOL  HW2 3835   2.740   2.452   2.750
 1232  SOL   OW 3836   1.859   1.278   1.789
 1232  SOL  HW1 3837   1.827   1.234   1.867
 1232  SOL  HW2 3838   1.784   1.330   1.759
 1233  SOL   OW 3839   0.636   2.524   3.267
 1233  SOL  HW1 3840   0.667   2.560   3.350
 1233  SOL  HW2 3841   0.715   2.504   3.218
 1234  SOL   OW 3842   3.395   0.582   0.831
 1234  SOL  HW1 3843   3.406   0.677   0.825
 1234  SOL  HW2 3844   3.372   0.567   0.923
 1235  SOL   OW 3845   0.540   2.998   0.786
 1235  SOL  HW1 3846   0.541   3.057   0.711
 1235  SOL  HW2 3847   0.624   2.952   0.782
 1236  SOL   OW 3848   1.912   2.895   0.851
 1236  SOL  HW1 3849   1.844   2.961   0.861
 1236  SOL  HW2 3850   1.871   2.827   0.798
 1237  SOL   OW 3851   2.423   2.814   2.757
 1237  SOL  HW1 3852   2.502   2.846   2.800
 1237  SOL  HW2 3853   2.430   2.719   2.760
 1238  SOL   OW 3854   2.467   0.642   2.989
 1238  SOL  HW1 3855   2.524   0.633   3.065
 1238  SOL  HW2 3856   2.448   0.552   2.963
 1239  SOL   OW 3857   2.036   1.440   0.729
 1239  SOL  HW1 3858   2.117   1.491   0.729
 1239  SOL  HW2 3859   2.020   1.419   0.821
 1240  SOL   OW 3860   0.500   1.881   2.017
 1240  SOL  HW1 3861   0.447   1.926   1.951
 1240  SOL  HW2 3862   0.525   1.799   1.975
 1241  SOL   OW 3863   2.612   3.288   0.860
 1241  SOL  HW1 3864   2.590   3.381   0.866
 1241  SOL  HW2 3865   2.647   3.266   0.947
 1242  SOL   OW 3866   1.546   0.251   1.586
 1242  SOL  HW1 3867   1.563   0.222   1.676
 1242  SOL  HW2 3868   1.606   0.199   1.533
 1243  SOL   OW 3869   0.863   0.831   0.091
 1243  SOL  HW1 3870   0.780   0.853   0.135
 1243  SOL  HW2 3871   0.906   0.915   0.078
 1244  SOL   OW 3872   3.217   2.703   1.675
 1244  SOL  HW1 3873   3.311   2.719   1.677
 1244  SOL  HW2 3874   3.191   2.721   1.585
 1245  SOL   OW 3875   0.641   3.656   3.460
 1245  SOL  HW1 3876   0.552   3.630   3.484
 1245  SOL  HW2 3877   0.696   3.580   3.481
 1246  SOL   OW 3878   2.765   1.284   1.391
 1246  SOL  HW1 3879   2.835   1.328   1.342
 1246  SOL  HW2 3880   2.761   1.333   1.474
 1247  SOL   OW 3881   3.459   3.281   3.317
 1247  SOL  HW1 3882   3.466   3.340   3.393
 1247  SOL  HW2 3883   3.396   3.215   3.344
 1248  SOL   OW 3884   3.045   1.166   1.283
 1248  SOL  HW1 3885   2.996   1.101   1.232
 1248  SOL  HW2 3886   3.011   1.250   1.254
 1249  SOL   OW 3887   0.148   0.490   0.922
 1249  SOL  HW1 3888   0.070   0.439   0.900
 1249  SOL  HW2 3889   0.169   0.538   0.842
 1250  SOL   OW 3890   3.164   2.490   1.836
 1250  SOL  HW1 3891   3.115   2.524   1.911
 1250  SOL  HW2 3892   3.183   2.568   1.783
 1251  SOL   OW 3893   0.283   3.722   1.314
 1251  SOL  HW1 3894   0.329   3.650   1.272
 1251  SOL  HW2 3895   0.337   3.745   1.389
 1252  SOL   OW 3896   0.192   2.907   0.795
 1252  SOL  HW1 3897   0.151   2.866   0.871
 1252  SOL  HW2 3898   0.185   3.001   0.810
 1253  SOL   OW 3899   3.560   2.490   2.316
 1253  SOL  HW1 3900   3.588   2.419   2.374
 1253  SOL  HW2 3901   3.581   2.570   2.364
 1254  SOL   OW 3902   0.105   0.108   0.762
 1254  SOL  HW1 3903   0.170   0.066   0.818
 1254  SOL  HW2 3904   0.154   0.174   0.713
 1255  SOL   OW 3905   3.203   3.263   1.168
 1255  SOL  HW1 3906   3.125   3.207   1.176
 1255  SOL  HW2 3907   3.235   3.271   1.258
 1256  SOL   OW 3908   2.822   1.884   1.133
 1256  SOL  HW1 3909   2.838   1.792   1.111
 1256  SOL  HW2 3910   2.872   1.900   1.213
 1257  SOL   OW 3911   2.930   3.527   1.098
 1257  SOL  HW1 3912   2.980   3.608   1.109
 1257  SOL  HW2 3913   2.992   3.466   1.059
 1258  SOL   OW 3914   1.926   0.701   1.238
 1258  SOL  HW1 3915   1.970   0.617   1.223
 1258  SOL  HW2 3916   1.844   0.677   1.281
 1259  SOL   OW 3917   0.536   3.323   1.330
 1259  SOL  HW1 3918   0.455   3.349   1.374
 1259  SOL  HW2 3919   0.559   3.239   1.370
 1260  SOL   OW 3920   2.990   1.380   1.001
 1260  SOL  HW1 3921   3.078   1.387   1.038
 1260  SOL  HW2 3922   2.953   1.467   1.013
 1261  SOL   OW 3923   1.902   2.393   3.515
 1261  SOL  HW1 3924   1.860   2.308   3.530
 1261  SOL  HW2 3925   1.830   2.456   3.511
 1262  SOL   OW 3926   2.471   1.629   3.519
 1262  SOL  HW1 3927   2.546   1.686   3.502
 1262  SOL  HW2 3928   2.497   1.577   3.595
 1263  SOL   OW 3929   3.041   2.991   2.491
 1263  SOL  HW1 3930   2.975   3.049   2.455
 1263  SOL  HW2 3931   3.115   2.996   2.430
 1264  SOL   OW 3932   0.952   2.868   0.038
 1264  SOL  HW1 3933   0.938   2.962   0.026
 1264  SOL  HW2 3934   0.995   2.861   0.124
 1265  SOL   OW 3935   2.377   1.871   0.487
 1265  SOL  HW1 3936   2.418   1.833   0.410
 1265  SOL  HW2 3937   2.357   1.961   0.462
 1266  SOL   OW 3938   3.406   0.150   0.821
 1266  SOL  HW1 3939   3.378   0.060   0.805
 1266  SOL  HW2 3940   3.348   0.204   0.767
 1267  SOL   OW 3941   0.179   2.106   0.353
 1267  SOL  HW1 3942   0.100   2.110   0.299
 1267  SOL  HW2 3943   0.194   2.012   0.367
 1268  SOL   OW 3944   3.278   1.634   1.046
 1268  SOL  HW1 3945   3.299   1.725   1.067
 1268  SOL  HW2 3946   3.267   1.633   0.951
 1269  SOL   OW 3947   1.018   1.973   2.635
 1269  SOL  HW1 3948   1.008   2.058   2.677
 1269  SOL  HW2 3949   1.060   1.918   2.702
 1270  SOL   OW 3950   2.034   1.852   1.279
 1270  SOL  HW1 3951   1.967   1.784   1.275
 1270  SOL  HW2 3952   2.007   1.909   1.351
 1271  SOL   OW 3953   0.986   3.301   0.465
 1271  SOL  HW1 3954   1.021   3.217   0.436
 1271  SOL  HW2 3955   1.013   3.364   0.399
 1272  SOL   OW 3956   1.895   3.041   2.181
 1272  SOL  HW1 3957   1.947   3.116   2.210
 1272  SOL  HW2 3958   1.809   3.077   2.160
 1273  SOL   OW 3959   3.135   3.348   3.723
 1273  SOL  HW1 3960   3.209   3.408   3.724
 1273  SOL  HW2 3961   3.130   3.318   3.632
 1274  SOL   OW 3962   0.840   0.177   1.850
 1274  SOL  HW1 3963   0.760   0.180   1.903
 1274  SOL  HW2 3964   0.820   0.233   1.774
 1275  SOL   OW 3965   2.153   1.587   2.729
 1275  SOL  HW1 3966   2.218   1.517   2.740
 1275  SOL  HW2 3967   2.121   1.604   2.818
 1276  SOL   OW 3968   2.413   1.696   0.797
 1276  SOL  HW1 3969   2.449   1.628   0.854
 1276  SOL  HW2 3970   2.324   1.710   0.829
 1277  SOL   OW 3971   0.836   3.184   2.070
 1277  SOL  HW1 3972   0.873   3.100   2.046
 1277  SOL  HW2 3973   0.897   3.220   2.135
 1278  SOL   OW 3974   2.810   2.281   2.987
 1278  SOL  HW1 3975   2.798   2.267   3.081
 1278  SOL  HW2 3976   2.881   2.221   2.963
 1279  SOL   OW 3977   1.415   3.356   2.614
 1279  SOL  HW1 3978   1.329   3.327   2.586
 1279  SOL  HW2 3979   1.476   3.308   2.557
 1280  SOL   OW 3980   3.351   1.855   1.300
 1280  SOL  HW1 3981   3.282   1.921   1.297
 1280  SOL  HW2 3982   3.432   1.904   1.285
 1281  SOL   OW 3983   1.926   0.838   1.742
 1281  SOL  HW1 3984   1.914   0.905   1.675
 1281  SOL  HW2 3985   1.895   0.879   1.823
 1282  SOL   OW 3986   0.150   2.829   1.285
 1282  SOL  HW1 3987   0.181   2.777   1.360
 1282  SOL  HW2 3988   0.189   2.916   1.298
 1283  SOL   OW 3989   0.044   1.606   1.001
 1283  SOL  HW1 3990   0.126   1.622   1.049
 1283  SOL  HW2 3991  -0.005   1.688   1.009
 1284  SOL   OW 3992   0.922   0.484   0.730
 1284  SOL  HW1 3993   1.009   0.524   0.717
 1284  SOL  HW2 3994   0.866   0.558   0.754
 1285  SOL   OW 3995   1.330   2.246   2.532
 1285  SOL  HW1 3996   1.325   2.151   2.521
 1285  SOL  HW2 3997   1.419   2.269   2.505
 1286  SOL   OW 3998   0.760   2.082   1.140
 1286  SOL  HW1 3999   0.696   2.133   1.189
 1286  SOL  HW2 4000   0.792   2.017   1.202
 1287  SOL   OW 4001   0.705   1.101   2.091
 1287  SOL  HW1 4002   0.751   1.139   2.017
 1287  SOL  HW2 4003   0.627   1.156   2.102
 1288  SOL   OW 4004   1.004   3.291   0.980
 1288  SOL  HW1 4005   0.998   3.196   0.992
 1288  SOL  HW2 4006   0.914   3.322   0.991
 1289  SOL   OW 4007   1.689   0.625   3.441
 1289  SOL  HW1 4008   1.594   0.613   3.429
 1289  SOL  HW2 4009   1.697   0.714   3.475
 1290  SOL   OW 4010   2.842   2.915   0.539
 1290  SOL  HW1 4011   2.792   2.996   0.529
 1290  SOL  HW2 4012   2.864   2.889   0.450
 1291  SOL   OW 4013   2.344   3.399   0.016
 1291  SOL  HW1 4014   2.282   3.352  -0.040
 1291  SOL  HW2 4015   2.291   3.467   0.057
 1292  SOL   OW 4016   0.242   1.222   1.326
 1292  SOL  HW1 4017   0.262   1.154   1.261
 1292  SOL  HW2 4018   0.326   1.263   1.344
 1293  SOL   OW 4019   3.375   2.497   0.056
 1293  SOL  HW1 4020   3.305   2.534   0.109
 1293  SOL  HW2 4021   3.445   2.476   0.119
 1294  SOL   OW 4022   1.605   2.821   3.628
 1294  SOL  HW1 4023   1.514   2.837   3.603
 1294  SOL  HW2 4024   1.656   2.850   3.553
 1295  SOL   OW 4025   1.717   2.137   0.650
 1295  SOL  HW1 4026   1.810   2.123   0.631
 1295  SOL  HW2 4027   1.675   2.053   0.628
 1296  SOL   OW 4028   1.010   3.506   3.634
 1296  SOL  HW1 4029   0.974   3.577   3.687
 1296  SOL  HW2 4030   1.027   3.546   3.548
 1297  SOL   OW 4031   3.483   2.341   2.579
 1297  SOL  HW1 4032   3.402   2.290   2.578
 1297  SOL  HW2 4033   3.455   2.431   2.595
 1298  SOL   OW 4034   0.778   2.515   1.596
 1298  SOL  HW1 4035   0.733   2.443   1.639
 1298  SOL  HW2 4036   0.724   2.536   1.520
 1299  SOL   OW 4037   2.743   2.640   0.345
 1299  SOL  HW1 4038   2.717   2.655   0.436
 1299  SOL  HW2 4039   2.661   2.648   0.295
 1300  SOL   OW 4040   2.952   2.930   2.152
 1300  SOL  HW1 4041   3.007   2.871   2.100
 1300  SOL  HW2 4042   3.014   2.993   2.190
 1301  SOL   OW 4043   0.703   3.701   2.731
 1301  SOL  HW1 4044   0.673   3.636   2.795
 1301  SOL  HW2 4045   0.796   3.713   2.751
 1302  SOL   OW 4046   0.194   3.201   3.360
 1302  SOL  HW1 4047   0.170   3.275   3.304
 1302  SOL  HW2 4048   0.288   3.211   3.375
 1303  SOL   OW 4049   1.809   0.293   3.727
 1303  SOL  HW1 4050   1.886   0.271   3.674
 1303  SOL  HW2 4051   1.739   0.306   3.663
 1304  SOL   OW 4052   2.166   2.984   1.998
 1304  SOL  HW1 4053   2.220   3.062   1.984
 1304  SOL  HW2 4054   2.118   3.002   2.078
 1305  SOL   OW 4055   2.769   2.018   2.505
 1305  SOL  HW1 4056   2.839   1.961   2.474
 1305  SOL  HW2 4057   2.706   2.021   2.432
 1306  SOL   OW 4058   0.189   0.305   0.624
 1306  SOL  HW1 4059   0.181   0.320   0.529
 1306  SOL  HW2 4060   0.210   0.392   0.660
 1307  SOL   OW 4061   0.909   1.575   2.483
 1307  SOL  HW1 4062   0.975   1.644   2.481
 1307  SOL  HW2 4063   0.852   1.594   2.409
 1308  SOL   OW 4064  -0.004   1.280   1.421
 1308  SOL  HW1 4065   0.083   1.277   1.381
 1308  SOL  HW2 4066  -0.059   1.324   1.356
 1309  SOL   OW 4067   1.498   1.268   2.852
 1309  SOL  HW1 4068   1.529   1.296   2.938
 1309  SOL  HW2 4069   1.548   1.320   2.789
 1310  SOL   OW 4070   0.601   0.068   2.049
 1310  SOL  HW1 4071   0.521   0.064   2.101
 1310  SOL  HW2 4072   0.655   0.135   2.092
 1311  SOL   OW 4073   2.288   0.137   0.400
 1311  SOL  HW1 4074   2.371   0.175   0.429
 1311  SOL  HW2 4075   2.249   0.100   0.479
 1312  SOL   OW 4076   3.442   1.259   0.319
 1312  SOL  HW1 4077   3.382   1.205   0.369
 1312  SOL  HW2 4078   3.467   1.204   0.245
 1313  SOL   OW 4079   0.469   2.270   2.544
 1313  SOL  HW1 4080   0.412   2.343   2.570
 1313  SOL  HW2 4081   0.484   2.284   2.450
 1314  SOL   OW 4082   0.974   3.093   3.595
 1314  SOL  HW1 4083   0.882   3.119   3.595
 1314  SOL  HW2 4084   1.010   3.130   3.675
 1315  SOL   OW 4085   1.804   0.157   3.417
 1315  SOL  HW1 4086   1.879   0.216   3.408
 1315  SOL  HW2 4087   1.729   0.215   3.431
 1316  SOL   OW 4088   1.115   3.360   0.721
 1316  SOL  HW1 4089   1.067   3.346   0.639
 1316  SOL  HW2 4090   1.058   3.321   0.788
 1317  SOL   OW 4091   0.329   2.906   1.896
 1317  SOL  HW1 4092   0.398   2.841   1.895
 1317  SOL  HW2 4093   0.325   2.937   1.986
 1318  SOL   OW 4094   0.418   0.126   2.939
 1318  SOL  HW1 4095   0.377   0.190   2.997
 1318  SOL  HW2 4096   0.435   0.173   2.858
 1319  SOL   OW 4097   1.897   0.234   1.609
 1319  SOL  HW1 4098   1.862   0.210   1.523
 1319  SOL  HW2 4099   1.845   0.183   1.671
 1320  SOL   OW 4100   0.535   1.522   0.524
 1320  SOL  HW1 4101   0.580   1.603   0.499
 1320  SOL  HW2 4102   0.572   1.455   0.467
 1321  SOL   OW 4103   0.933   0.868   1.192
 1321  SOL  HW1 4104   0.886   0.848   1.274
 1321  SOL  HW2 4105   0.930   0.785   1.143
 1322  SOL   OW 4106   3.527   2.007   3.279
 1322  SOL  HW1 4107   3.448   1.954   3.270
 1322  SOL  HW2 4108   3.499   2.085   3.327
 1323  SOL   OW 4109   2.054   0.846   2.873
 1323  SOL  HW1 4110   2.101   0.873   2.952
 1323  SOL  HW2 4111   2.037   0.928   2.826
 1324  SOL   OW 4112   0.278   3.676   0.921
 1324  SOL  HW1 4113   0.360   3.715   0.950
 1324  SOL  HW2 4114   0.277   3.589   0.963
 1325  SOL   OW 4115   0.151   2.649   1.055
 1325  SOL  HW1 4116   0.086   2.644   0.985
 1325  SOL  HW2 4117   0.110   2.704   1.121
 1326  SOL   OW 4118   1.093   2.062   2.079
 1326  SOL  HW1 4119   1.157   1.992   2.074
 1326  SOL  HW2 4120   1.026   2.039   2.014
 1327  SOL   OW 4121   2.511   0.304   3.249
 1327  SOL  HW1 4122   2.540   0.390   3.219
 1327  SOL  HW2 4123   2.417   0.314   3.263
 1328  SOL   OW 4124   0.690   1.352   2.307
 1328  SOL  HW1 4125   0.621   1.329   2.244
 1328  SOL  HW2 4126   0.669   1.301   2.385
 1329  SOL   OW 4127   2.984   1.795   0.308
 1329  SOL  HW1 4128   2.964   1.731   0.239
 1329  SOL  HW2 4129   2.898   1.827   0.336
 1330  SOL   OW 4130   2.086   1.008   2.429
 1330  SOL  HW1 4131   2.076   0.939   2.496
 1330  SOL  HW2 4132   2.181   1.023   2.426
 1331  SOL   OW 4133   3.632   0.680   1.389
 1331  SOL  HW1 4134   3.559   0.620   1.406
 1331  SOL  HW2 4135   3.591   0.760   1.357
 1332  SOL   OW 4136   1.147   3.198   0.080
 1332  SOL  HW1 4137   1.139   3.275   0.137
 1332  SOL  HW2 4138   1.163   3.125   0.140
 1333  SOL   OW 4139   1.364   2.609   3.441
 1333  SOL  HW1 4140   1.297   2.662   3.398
 1333  SOL  HW2 4141   1.320   2.572   3.517
 1334  SOL   OW 4142   2.992   1.230   0.352
 1334  SOL  HW1 4143   3.013   1.307   0.301
 1334  SOL  HW2 4144   3.028   1.248   0.439
 1335  SOL   OW 4145   2.142   1.697   1.662
 1335  SOL  HW1 4146   2.225   1.651   1.675
 1335  SOL  HW2 4147   2.142   1.765   1.729
 1336  SOL   OW 4148   0.225   1.288   2.708
 1336  SOL  HW1 4149   0.243   1.336   2.627
 1336  SOL  HW2 4150   0.164   1.344   2.756
 1337  SOL   OW 4151   0.726   1.753   1.824
 1337  SOL  HW1 4152   0.774   1.703   1.889
 1337  SOL  HW2 4153   0.670   1.689   1.780
 1338  SOL   OW 4154   0.193   1.328   0.688
 1338  SOL  HW1 4155   0.229   1.271   0.620
 1338  SOL  HW2 4156   0.260   1.396   0.701
 1339  SOL   OW 4157   0.201   1.030   2.456
 1339  SOL  HW1 4158   0.256   1.065   2.386
 1339  SOL  HW2 4159   0.239   0.945   2.476
 1340  SOL   OW 4160   0.828   3.163   0.269
 1340  SOL  HW1 4161   0.815   3.079   0.225
 1340  SOL  HW2 4162   0.764   3.163   0.340
 1341  SOL   OW 4163   0.872   2.914   3.394
 1341  SOL  HW1 4164   0.846   2.833   3.439
 1341  SOL  HW2 4165   0.925   2.961   3.458
 1342  SOL   OW 4166   3.539   2.679   0.355
 1342  SOL  HW1 4167   3.507   2.692   0.445
 1342  SOL  HW2 4168   3.549   2.767   0.320
 1343  SOL   OW 4169   3.743   0.588   2.011
 1343  SOL  HW1 4170   3.771   0.497   2.000
 1343  SOL  HW2 4171   3.663   0.581   2.063
 1344  SOL   OW 4172   1.254   2.038   3.440
 1344  SOL  HW1 4173   1.180   2.097   3.459
 1344  SOL  HW2 4174   1.276   2.000   3.524
 1345  SOL   OW 4175   1.051   1.725   1.536
 1345  SOL  HW1 4176   1.056   1.648   1.480
 1345  SOL  HW2 4177   1.131   1.774   1.517
 1346  SOL   OW 4178   2.722   2.842   3.261
 1346  SOL  HW1 4179   2.663   2.767   3.255
 1346  SOL  HW2 4180   2.709   2.889   3.179
 1347  SOL   OW 4181   0.565   2.851   0.325
 1347  SOL  HW1 4182   0.524   2.921   0.375
 1347  SOL  HW2 4183   0.508   2.840   0.249
 1348  SOL   OW 4184   0.839   2.637   2.927
 1348  SOL  HW1 4185   0.836   2.706   2.992
 1348  SOL  HW2 4186   0.929   2.635   2.896
 1349  SOL   OW 4187   2.317   1.804   0.174
 1349  SOL  HW1 4188   2.291   1.869   0.109
 1349  SOL  HW2 4189   2.365   1.738   0.123
 1350  SOL   OW 4190   0.085   3.299   0.298
 1350  SOL  HW1 4191   0.107   3.382   0.341
 1350  SOL  HW2 4192   0.044   3.325   0.216
 1351  SOL   OW 4193   2.206   0.861   1.302
 1351  SOL  HW1 4194   2.130   0.915   1.281
 1351  SOL  HW2 4195   2.260   0.918   1.357
 1352  SOL   OW 4196   2.807   1.160   0.655
 1352  SOL  HW1 4197   2.809   1.088   0.592
 1352  SOL  HW2 4198   2.772   1.122   0.735
 1353  SOL   OW 4199   1.269   1.991  -0.021
 1353  SOL  HW1 4200   1.253   1.910   0.028
 1353  SOL  HW2 4201   1.249   2.061   0.041
 1354  SOL   OW 4202   3.437   2.608   3.260
 1354  SOL  HW1 4203   3.402   2.681   3.208
 1354  SOL  HW2 4204   3.468   2.649   3.341
 1355  SOL   OW 4205   0.352   0.095   2.155
 1355  SOL  HW1 4206   0.292   0.070   2.084
 1355  SOL  HW2 4207   0.295   0.127   2.224
 1356  SOL   OW 4208   2.715   2.169   1.255
 1356  SOL  HW1 4209   2.780   2.105   1.229
 1356  SOL  HW2 4210   2.691   2.144   1.344
 1357  SOL   OW 4211   1.058   3.592   0.971
 1357  SOL  HW1 4212   0.970   3.617   0.999
 1357  SOL  HW2 4213   1.061   3.498   0.984
 1358  SOL   OW 4214   3.070   0.114   0.469
 1358  SOL  HW1 4215   2.981   0.149   0.481
 1358  SOL  HW2 4216   3.064   0.023   0.499
 1359  SOL   OW 4217   3.342   2.954   0.662
 1359  SOL  HW1 4218   3.383   3.040   0.655
 1359  SOL  HW2 4219   3.297   2.942   0.578
 1360  SOL   OW 4220   0.179   0.285   3.484
 1360  SOL  HW1 4221   0.185   0.369   3.529
 1360  SOL  HW2 4222   0.124   0.301   3.408
 1361  SOL   OW 4223   2.768   0.137   2.990
 1361  SOL  HW1 4224   2.794   0.213   3.042
 1361  SOL  HW2 4225   2.841   0.076   2.999
 1362  SOL   OW 4226   3.631   3.570   2.464
 1362  SOL  HW1 4227   3.560   3.631   2.443
 1362  SOL  HW2 4228   3.681   3.563   2.382
 1363  SOL   OW 4229   2.603   2.130   0.051
 1363  SOL  HW1 4230   2.690   2.106   0.084
 1363  SOL  HW2 4231   2.619   2.204  -0.007
 1364  SOL   OW 4232   3.240   1.155   2.714
 1364  SOL  HW1 4233   3.172   1.191   2.771
 1364  SOL  HW2 4234   3.192   1.118   2.640
 1365  SOL   OW 4235   1.389   0.563   3.447
 1365  SOL  HW1 4236   1.319   0.613   3.490
 1365  SOL  HW2 4237   1.377   0.579   3.354
 1366  SOL   OW 4238   1.047   2.802   0.728
 1366  SOL  HW1 4239   1.121   2.775   0.673
 1366  SOL  HW2 4240   1.070   2.770   0.815
 1367  SOL   OW 4241   3.707   3.593   1.077
 1367  SOL  HW1 4242   3.745   3.606   0.990
 1367  SOL  HW2 4243   3.680   3.680   1.104
 1368  SOL   OW 4244   1.267   3.551   0.524
 1368  SOL  HW1 4245   1.311   3.500   0.457
 1368  SOL  HW2 4246   1.236   3.487   0.588
 1369  SOL   OW 4247   0.455   1.863   2.806
 1369  SOL  HW1 4248   0.546   1.856   2.777
 1369  SOL  HW2 4249   0.453   1.817   2.889
 1370  SOL   OW 4250   2.052   1.662   3.017
 1370  SOL  HW1 4251   2.138   1.619   3.015
 1370  SOL  HW2 4252   1.989   1.591   3.014
 1371  SOL   OW 4253   1.336   3.099   3.603
 1371  SOL  HW1 4254   1.293   3.032   3.550
 1371  SOL  HW2 4255   1.266   3.135   3.658
 1372  SOL   OW 4256   1.238   2.577   2.219
 1372  SOL  HW1 4257   1.151   2.586   2.259
 1372  SOL  HW2 4258   1.249   2.483   2.207
 1373  SOL   OW 4259   1.222   0.260   0.449
 1373  SOL  HW1 4260   1.193   0.257   0.540
 1373  SOL  HW2 4261   1.281   0.185   0.440
 1374  SOL   OW 4262   2.514   0.610   3.678
 1374  SOL  HW1 4263   2.588   0.603   3.738
 1374  SOL  HW2 4264   2.511   0.702   3.654
 1375  SOL   OW 4265   3.468   3.530   1.338
 1375  SOL  HW1 4266   3.537   3.596   1.339
 1375  SOL  HW2 4267   3.514   3.447   1.342
 1376  SOL   OW 4268   3.609   2.370   3.252
 1376  SOL  HW1 4269   3.621   2.350   3.345
 1376  SOL  HW2 4270   3.545   2.441   3.251
 1377  SOL   OW 4271   2.426   3.236   1.469
 1377  SOL  HW1 4272   2.516   3.201   1.472
 1377  SOL  HW2 4273   2.394   3.213   1.382
 1378  SOL   OW 4274   2.486   1.242   3.122
 1378  SOL  HW1 4275   2.525   1.189   3.192
 1378  SOL  HW2 4276   2.543   1.318   3.115
 1379  SOL   OW 4277   2.927   0.040   2.315
 1379  SOL  HW1 4278   2.887   0.030   2.401
 1379  SOL  HW2 4279   2.860   0.007   2.255
 1380  SOL   OW 4280   1.444   3.373   0.065
 1380  SOL  HW1 4281   1.373   3.362   0.002
 1380  SOL  HW2 4282   1.522   3.344   0.018
 1381  SOL   OW 4283   1.585   2.381   2.997
 1381  SOL  HW1 4284   1.543   2.407   3.079
 1381  SOL  HW2 4285   1.671   2.348   3.024
 1382  SOL   OW 4286   0.723   3.182   0.932
 1382  SOL  HW1 4287   0.650   3.145   0.982
 1382  SOL  HW2 4288   0.709   3.152   0.843
 1383  SOL   OW 4289   1.877   3.502   2.388
 1383  SOL  HW1 4290   1.942   3.515   2.319
 1383  SOL  HW2 4291   1.925   3.519   2.469
 1384  SOL   OW 4292   2.548   0.076   1.575
 1384  SOL  HW1 4293   2.467   0.029   1.555
 1384  SOL  HW2 4294   2.527   0.168   1.562
 1385  SOL   OW 4295   3.090   1.241   2.208
 1385  SOL  HW1 4296   3.113   1.220   2.118
 1385  SOL  HW2 4297   3.095   1.337   2.212
 1386  SOL   OW 4298   1.400   2.899   1.361
 1386  SOL  HW1 4299   1.441   2.881   1.277
 1386  SOL  HW2 4300   1.431   2.829   1.418
 1387  SOL   OW 4301   3.473   1.332   0.995
 1387  SOL  HW1 4302   3.409   1.364   0.931
 1387  SOL  HW2 4303   3.558   1.357   0.959
 1388  SOL   OW 4304   0.536   0.398   1.315
 1388  SOL  HW1 4305   0.609   0.399   1.253
 1388  SOL  HW2 4306   0.458   0.393   1.260
 1389  SOL   OW 4307   2.477   0.276   1.228
 1389  SOL  HW1 4308   2.484   0.184   1.256
 1389  SOL  HW2 4309   2.565   0.298   1.197
 1390  SOL   OW 4310   2.369   1.827   1.097
 1390  SOL  HW1 4311   2.280   1.829   1.062
 1390  SOL  HW2 4312   2.358   1.835   1.192
 1391  SOL   OW 4313   2.822   0.955   2.150
 1391  SOL  HW1 4314   2.745   0.910   2.114
 1391  SOL  HW2 4315   2.850   1.013   2.079
 1392  SOL   OW 4316   2.485   3.538   1.435
 1392  SOL  HW1 4317   2.441   3.456   1.459
 1392  SOL  HW2 4318   2.416   3.604   1.440
 1393  SOL   OW 4319   2.699   3.346   1.992
 1393  SOL  HW1 4320   2.607   3.332   2.017
 1393  SOL  HW2 4321   2.696   3.419   1.931
 1394  SOL   OW 4322   0.831   2.592   1.215
 1394  SOL  HW1 4323   0.895   2.621   1.280
 1394  SOL  HW2 4324   0.858   2.502   1.194
 1395  SOL   OW 4325   2.557   1.335   0.635
 1395  SOL  HW1 4326   2.611   1.378   0.702
 1395  SOL  HW2 4327   2.621   1.295   0.575
 1396  SOL   OW 4328   0.404   3.355   2.027
 1396  SOL  HW1 4329   0.455   3.283   1.989
 1396  SOL  HW2 4330   0.460   3.389   2.097
 1397  SOL   OW 4331   3.416   1.675   1.491
 1397  SOL  HW1 4332   3.411   1.744   1.424
 1397  SOL  HW2 4333   3.450   1.599   1.445
 1398  SOL   OW 4334   1.591  -0.026   0.528
 1398  SOL  HW1 4335   1.565   0.046   0.586
 1398  SOL  HW2 4336   1.532  -0.019   0.454
 1399  SOL   OW 4337   2.579   1.775   0.326
 1399  SOL  HW1 4338   2.554   1.734   0.243
 1399  SOL  HW2 4339   2.646   1.839   0.302
 1400  SOL   OW 4340   0.755   0.200   0.208
 1400  SOL  HW1 4341   0.701   0.221   0.284
 1400  SOL  HW2 4342   0.799   0.118   0.231
 1401  SOL   OW 4343   0.321   3.528   0.042
 1401  SOL  HW1 4344   0.311   3.623   0.041
 1401  SOL  HW2 4345   0.377   3.509  -0.034
 1402  SOL   OW 4346   2.328   1.671   2.367
 1402  SOL  HW1 4347   2.299   1.671   2.276
 1402  SOL  HW2 4348   2.418   1.705   2.363
 1403  SOL   OW 4349   3.137   1.590   3.109
 1403  SOL  HW1 4350   3.071   1.629   3.052
 1403  SOL  HW2 4351   3.157   1.659   3.173
 1404  SOL   OW 4352   2.083   0.316   0.682
 1404  SOL  HW1 4353   2.064   0.358   0.766
 1404  SOL  HW2 4354   1.997   0.294   0.646
 1405  SOL   OW 4355   2.651   0.234   2.058
 1405  SOL  HW1 4356   2.738   0.264   2.083
 1405  SOL  HW2 4357   2.652   0.233   1.963
 1406  SOL   OW 4358   0.862   2.428   3.082
 1406  SOL  HW1 4359   0.931   2.370   3.051
 1406  SOL  HW2 4360   0.864   2.503   3.022
 1407  SOL   OW 4361   2.537   3.741   0.926
 1407  SOL  HW1 4362   2.580   3.683   0.989
 1407  SOL  HW2 4363   2.451   3.759   0.965
 1408  SOL   OW 4364   2.870   0.909   0.499
 1408  SOL  HW1 4365   2.952   0.914   0.547
 1408  SOL  HW2 4366   2.896   0.897   0.408
 1409  SOL   OW 4367   1.171   1.814   3.254
 1409  SOL  HW1 4368   1.102   1.849   3.198
 1409  SOL  HW2 4369   1.184   1.881   3.321
 1410  SOL   OW 4370   0.934   3.260   2.666
 1410  SOL  HW1 4371   0.984   3.296   2.738
 1410  SOL  HW2 4372   0.894   3.180   2.701
 1411  SOL   OW 4373   3.334   0.332   2.977
 1411  SOL  HW1 4374   3.323   0.251   3.027
 1411  SOL  HW2 4375   3.330   0.304   2.885
 1412  SOL   OW 4376   0.430   1.081   0.249
 1412  SOL  HW1 4377   0.437   1.161   0.198
 1412  SOL  HW2 4378   0.348   1.040   0.221
 1413  SOL   OW 4379   0.245   3.237   1.712
 1413  SOL  HW1 4380   0.264   3.313   1.656
 1413  SOL  HW2 4381   0.272   3.265   1.800
 1414  SOL   OW 4382   0.039   1.099   3.282
 1414  SOL  HW1 4383   0.076   1.144   3.206
 1414  SOL  HW2 4384  -0.056   1.105   3.270
 1415  SOL   OW 4385   3.593   2.049   1.635
 1415  SOL  HW1 4386   3.643   2.111   1.688
 1415  SOL  HW2 4387   3.656   2.016   1.571
 1416  SOL   OW 4388   1.705   0.204   1.853
 1416  SOL  HW1 4389   1.635   0.163   1.904
 1416  SOL  HW2 4390   1.783   0.195   1.908
 1417  SOL   OW 4391   3.074   2.974   2.776
 1417  SOL  HW1 4392   3.001   2.934   2.825
 1417  SOL  HW2 4393   3.045   2.973   2.685
 1418  SOL   OW 4394   0.398   2.054   3.325
 1418  SOL  HW1 4395   0.476   2.017   3.369
 1418  SOL  HW2 4396   0.410   2.149   3.333
 1419  SOL   OW 4397   2.028   1.692   1.997
 1419  SOL  HW1 4398   1.994   1.621   1.942
 1419  SOL  HW2 4399   2.024   1.769   1.940
 1420  SOL   OW 4400   0.903   1.905   2.229
 1420  SOL  HW1 4401   0.933   1.859   2.307
 1420  SOL  HW2 4402   0.961   1.981   2.221
 1421  SOL   OW 4403   3.393   1.739   2.577
 1421  SOL  HW1 4404   3.392   1.827   2.539
 1421  SOL  HW2 4405   3.359   1.750   2.666
 1422  SOL   OW 4406   2.918   0.688   2.644
 1422  SOL  HW1 4407   2.951   0.657   2.560
 1422  SOL  HW2 4408   2.989   0.672   2.706
 1423  SOL   OW 4409   2.257   2.073   3.001
 1423  SOL  HW1 4410   2.349   2.056   3.022
 1423  SOL  HW2 4411   2.259   2.154   2.949
 1424  SOL   OW 4412   2.888   1.366   2.534
 1424  SOL  HW1 4413   2.981   1.345   2.550
 1424  SOL  HW2 4414   2.866   1.319   2.454
 1425  SOL   OW 4415   3.192   3.519   1.661
 1425  SOL  HW1 4416   3.107   3.555   1.684
 1425  SOL  HW2 4417   3.227   3.578   1.595
 1426  SOL   OW 4418   2.850   2.295   0.729
 1426  SOL  HW1 4419   2.915   2.288   0.800
 1426  SOL  HW2 4420   2.794   2.218   0.741
 1427  SOL   OW 4421   0.858   1.149   3.271
 1427  SOL  HW1 4422   0.771   1.159   3.233
 1427  SOL  HW2 4423   0.918   1.184   3.205
 1428  SOL   OW 4424   2.387   3.689   2.187
 1428  SOL  HW1 4425   2.395   3.594   2.192
 1428  SOL  HW2 4426   2.351   3.705   2.100
 1429  SOL   OW 4427   1.261   2.816   1.585
 1429  SOL  HW1 4428   1.311   2.840   1.507
 1429  SOL  HW2 4429   1.185   2.875   1.585
 1430  SOL   OW 4430   2.971   2.628   1.980
 1430  SOL  HW1 4431   2.971   2.609   2.074
 1430  SOL  HW2 4432   2.902   2.572   1.944
 1431  SOL   OW 4433   0.571   0.373   1.815
 1431  SOL  HW1 4434   0.634   0.442   1.792
 1431  SOL  HW2 4435   0.508   0.373   1.744
 1432  SOL   OW 4436   3.014   2.787   1.061
 1432  SOL  HW1 4437   3.082   2.829   1.009
 1432  SOL  HW2 4438   2.937   2.786   1.004
 1433  SOL   OW 4439   1.603   2.280   2.680
 1433  SOL  HW1 4440   1.634   2.309   2.595
 1433  SOL  HW2 4441   1.675   2.300   2.740
 1434  SOL   OW 4442   0.947   1.734   2.024
 1434  SOL  HW1 4443   0.942   1.792   2.100
 1434  SOL  HW2 4444   1.026   1.760   1.978
 1435  SOL   OW 4445   0.208   2.793   1.673
 1435  SOL  HW1 4446   0.273   2.848   1.718
 1435  SOL  HW2 4447   0.258   2.719   1.640
 1436  SOL   OW 4448   2.282   1.671   2.112
 1436  SOL  HW1 4449   2.190   1.664   2.088
 1436  SOL  HW2 4450   2.329   1.631   2.039
 1437  SOL   OW 4451   1.371   2.610   0.477
 1437  SOL  HW1 4452   1.354   2.592   0.569
 1437  SOL  HW2 4453   1.456   2.654   0.476
 1438  SOL   OW 4454   0.618   0.924   2.802
 1438  SOL  HW1 4455   0.546   0.972   2.759
 1438  SOL  HW2 4456   0.592   0.919   2.894
 1439  SOL   OW 4457   3.570   3.014   2.225
 1439  SOL  HW1 4458   3.627   3.004   2.301
 1439  SOL  HW2 4459   3.524   2.930   2.217
 1440  SOL   OW 4460   0.789   2.186   3.200
 1440  SOL  HW1 4461   0.716   2.144   3.154
 1440  SOL  HW2 4462   0.793   2.274   3.164
 1441  SOL   OW 4463   0.489   2.631   2.547
 1441  SOL  HW1 4464   0.564   2.573   2.563
 1441  SOL  HW2 4465   0.419   2.594   2.601
 1442  SOL   OW 4466   2.310   0.711   3.270
 1442  SOL  HW1 4467   2.235   0.706   3.211
 1442  SOL  HW2 4468   2.278   0.677   3.353
 1443  SOL   OW 4469   0.968   2.382   2.448
 1443  SOL  HW1 4470   0.964   2.387   2.543
 1443  SOL  HW2 4471   0.972   2.474   2.420
 1444  SOL   OW 4472   0.257   1.805   1.082
 1444  SOL  HW1 4473   0.304   1.792   1.000
 1444  SOL  HW2 4474   0.263   1.721   1.128
 1445  SOL   OW 4475   0.619   2.337   1.702
 1445  SOL  HW1 4476   0.616   2.327   1.798
 1445  SOL  HW2 4477   0.640   2.249   1.670
 1446  SOL   OW 4478   1.176   0.506   2.068
 1446  SOL  HW1 4479   1.113   0.567   2.106
 1446  SOL  HW2 4480   1.254   0.559   2.050
 1447  SOL   OW 4481   0.633   2.478   0.760
 1447  SOL  HW1 4482   0.614   2.558   0.710
 1447  SOL  HW2 4483   0.602   2.407   0.704
 1448  SOL   OW 4484   1.234   2.439   0.688
 1448  SOL  HW1 4485   1.250   2.484   0.771
 1448  SOL  HW2 4486   1.141   2.416   0.691
 1449  SOL   OW 4487   1.633   1.465   2.709
 1449  SOL  HW1 4488   1.662   1.549   2.744
 1449  SOL  HW2 4489   1.705   1.405   2.726
 1450  SOL   OW 4490   3.000   3.387   1.857
 1450  SOL  HW1 4491   2.969   3.438   1.783
 1450  SOL  HW2 4492   3.059   3.322   1.819
 1451  SOL   OW 4493   2.497   0.907   2.894
 1451  SOL  HW1 4494   2.476   0.822   2.934
 1451  SOL  HW2 4495   2.534   0.885   2.809
 1452  SOL   OW 4496   3.548   0.731   3.407
 1452  SOL  HW1 4497   3.616   0.746   3.341
 1452  SOL  HW2 4498   3.521   0.641   3.393
 1453  SOL   OW 4499   0.550   2.353   2.269
 1453  SOL  HW1 4500   0.636   2.314   2.260
 1453  SOL  HW2 4501   0.567   2.447   2.281
 1454  SOL   OW 4502   3.423   2.817   2.125
 1454  SOL  HW1 4503   3.424   2.741   2.067
 1454  SOL  HW2 4504   3.378   2.885   2.075
 1455  SOL   OW 4505   2.021   1.941   2.947
 1455  SOL  HW1 4506   2.039   1.857   2.989
 1455  SOL  HW2 4507   2.106   1.985   2.943
 1456  SOL   OW 4508   2.557   3.233   2.874
 1456  SOL  HW1 4509   2.481   3.271   2.917
 1456  SOL  HW2 4510   2.601   3.183   2.942
 1457  SOL   OW 4511   1.205   1.980   0.857
 1457  SOL  HW1 4512   1.202   1.989   0.952
 1457  SOL  HW2 4513   1.287   1.933   0.840
 1458  SOL   OW 4514   3.069   0.111   1.093
 1458  SOL  HW1 4515   3.137   0.072   1.149
 1458  SOL  HW2 4516   3.078   0.064   1.010
 1459  SOL   OW 4517   3.613   0.128   1.047
 1459  SOL  HW1 4518   3.576   0.112   0.961
 1459  SOL  HW2 4519   3.539   0.158   1.101
 1460  SOL   OW 4520   0.590   2.655   2.309
 1460  SOL  HW1 4521   0.553   2.661   2.397
 1460  SOL  HW2 4522   0.645   2.732   2.301
 1461  SOL   OW 4523   2.352   0.852   2.470
 1461  SOL  HW1 4524   2.366   0.941   2.501
 1461  SOL  HW2 4525   2.330   0.802   2.549
 1462  SOL   OW 4526   2.389   3.504   3.487
 1462  SOL  HW1 4527   2.410   3.495   3.580
 1462  SOL  HW2 4528   2.365   3.596   3.476
 1463  SOL   OW 4529   0.909   0.125   3.321
 1463  SOL  HW1 4530   0.823   0.133   3.281
 1463  SOL  HW2 4531   0.958   0.069   3.262
 1464  SOL   OW 4532   1.456   0.491   1.227
 1464  SOL  HW1 4533   1.375   0.446   1.247
 1464  SOL  HW2 4534   1.459   0.496   1.132
 1465  SOL   OW 4535   2.296   3.202   1.207
 1465  SOL  HW1 4536   2.227   3.261   1.238
 1465  SOL  HW2 4537   2.275   3.186   1.115
 1466  SOL   OW 4538   0.735   2.105   1.578
 1466  SOL  HW1 4539   0.826   2.125   1.600
 1466  SOL  HW2 4540   0.735   2.011   1.560
 1467  SOL   OW 4541   2.852   1.511   1.249
 1467  SOL  HW1 4542   2.918   1.559   1.199
 1467  SOL  HW2 4543   2.768   1.541   1.212
 1468  SOL   OW 4544   1.594   1.252   0.667
 1468  SOL  HW1 4545   1.673   1.198   0.671
 1468  SOL  HW2 4546   1.550   1.237   0.751
 1469  SOL   OW 4547   2.312   0.252   0.853
 1469  SOL  HW1 4548   2.249   0.209   0.795
 1469  SOL  HW2 4549   2.348   0.324   0.801
 1470  SOL   OW 4550   0.424   1.123   0.564
 1470  SOL  HW1 4551   0.508   1.109   0.607
 1470  SOL  HW2 4552   0.446   1.142   0.473
 1471  SOL   OW 4553   1.856   2.264   1.112
 1471  SOL  HW1 4554   1.943   2.285   1.146
 1471  SOL  HW2 4555   1.861   2.284   1.019
 1472  SOL   OW 4556   2.902   2.362   0.181
 1472  SOL  HW1 4557   2.846   2.320   0.246
 1472  SOL  HW2 4558   2.968   2.409   0.233
 1473  SOL   OW 4559   2.607   1.726   2.441
 1473  SOL  HW1 4560   2.573   1.649   2.486
 1473  SOL  HW2 4561   2.627   1.695   2.352
 1474  SOL   OW 4562   0.512   1.360   2.632
 1474  SOL  HW1 4563   0.460   1.400   2.562
 1474  SOL  HW2 4564   0.451   1.301   2.677
 1475  SOL   OW 4565   3.155   0.755   1.196
 1475  SOL  HW1 4566   3.109   0.823   1.244
 1475  SOL  HW2 4567   3.114   0.673   1.224
 1476  SOL   OW 4568   1.418  -0.011   3.621
 1476  SOL  HW1 4569   1.490  -0.019   3.558
 1476  SOL  HW2 4570   1.358   0.051   3.580
 1477  SOL   OW 4571   0.930   1.100   2.286
 1477  SOL  HW1 4572   0.873   1.049   2.228
 1477  SOL  HW2 4573   0.875   1.174   2.314
 1478  SOL   OW 4574   3.026   2.015   2.097
 1478  SOL  HW1 4575   3.091   2.085   2.094
 1478  SOL  HW2 4576   3.008   1.995   2.005
 1479  SOL   OW 4577   0.069   3.018   2.420
 1479  SOL  HW1 4578   0.143   3.066   2.383
 1479  SOL  HW2 4579   0.062   3.051   2.510
 1480  SOL   OW 4580   0.107   3.484   2.810
 1480  SOL  HW1 4581   0.039   3.418   2.794
 1480  SOL  HW2 4582   0.176   3.437   2.855
 1481  SOL   OW 4583   3.013   2.612   2.930
 1481  SOL  HW1 4584   2.933   2.563   2.910
 1481  SOL  HW2 4585   3.060   2.616   2.847
 1482  SOL   OW 4586   1.319   0.305   0.918
 1482  SOL  HW1 4587   1.332   0.399   0.930
 1482  SOL  HW2 4588   1.367   0.265   0.990
 1483  SOL   OW 4589   2.508   2.027   2.995
 1483  SOL  HW1 4590   2.579   2.045   2.933
 1483  SOL  HW2 4591   2.551   2.018   3.080
 1484  SOL   OW 4592   2.470   0.540   2.681
 1484  SOL  HW1 4593   2.498   0.491   2.759
 1484  SOL  HW2 4594   2.417   0.478   2.631
 1485  SOL   OW 4595   2.915   1.073   1.938
 1485  SOL  HW1 4596   2.962   1.145   1.978
 1485  SOL  HW2 4597   2.860   1.114   1.871
 1486  SOL   OW 4598   1.398   0.671   2.055
 1486  SOL  HW1 4599   1.492   0.663   2.040
 1486  SOL  HW2 4600   1.386   0.762   2.082
 1487  SOL   OW 4601   2.494   1.962   3.446
 1487  SOL  HW1 4602   2.555   1.986   3.376
 1487  SOL  HW2 4603   2.411   1.947   3.402
 1488  SOL   OW 4604   1.913   3.417   0.831
 1488  SOL  HW1 4605   1.848   3.363   0.876
 1488  SOL  HW2 4606   1.863   3.465   0.765
 1489  SOL   OW 4607   2.938   3.037   1.441
 1489  SOL  HW1 4608   2.958   2.990   1.522
 1489  SOL  HW2 4609   2.937   3.129   1.467
 1490  SOL   OW 4610   0.831   3.489   2.175
 1490  SOL  HW1 4611   0.792   3.482   2.087
 1490  SOL  HW2 4612   0.860   3.580   2.181
 1491  SOL   OW 4613   2.380   1.738   2.887
 1491  SOL  HW1 4614   2.427   1.720   2.806
 1491  SOL  HW2 4615   2.400   1.830   2.906
 1492  SOL   OW 4616   3.320   0.154   1.473
 1492  SOL  HW1 4617   3.387   0.201   1.523
 1492  SOL  HW2 4618   3.262   0.116   1.539
 1493  SOL   OW 4619   3.177   1.691   3.475
 1493  SOL  HW1 4620   3.223   1.774   3.481
 1493  SOL  HW2 4621   3.240   1.626   3.505
 1494  SOL   OW 4622   3.237   1.546   0.810
 1494  SOL  HW1 4623   3.196   1.459   0.801
 1494  SOL  HW2 4624   3.329   1.531   0.790
 1495  SOL   OW 4625   3.687   3.316   1.808
 1495  SOL  HW1 4626   3.646   3.241   1.852
 1495  SOL  HW2 4627   3.775   3.285   1.785
 1496  SOL   OW 4628   0.395   1.033   2.659
 1496  SOL  HW1 4629   0.325   1.082   2.616
 1496  SOL  HW2 4630   0.464   1.027   2.593
 1497  SOL   OW 4631   2.916   1.101   0.113
 1497  SOL  HW1 4632   2.919   1.163   0.186
 1497  SOL  HW2 4633   2.828   1.063   0.118
 1498  SOL   OW 4634   1.012   2.664   2.363
 1498  SOL  HW1 4635   0.934   2.708   2.327
 1498  SOL  HW2 4636   1.010   2.686   2.456
 1499  SOL   OW 4637   2.804   3.041   0.885
 1499  SOL  HW1 4638   2.825   2.948   0.898
 1499  SOL  HW2 4639   2.744   3.041   0.810
 1500  SOL   OW 4640   1.675   0.566   0.069
 1500  SOL  HW1 4641   1.711   0.494   0.121
 1500  SOL  HW2 4642   1.605   0.525   0.017
 1501  SOL   OW 4643   0.734   0.628   1.799
 1501  SOL  HW1 4644   0.781   0.708   1.775
 1501  SOL  HW2 4645   0.657   0.658   1.846
 1502  SOL   OW 4646   2.039   0.074   2.564
 1502  SOL  HW1 4647   1.982   0.028   2.626
 1502  SOL  HW2 4648   1.988   0.149   2.534
 1503  SOL   OW 4649   2.155   0.026   1.703
 1503  SOL  HW1 4650   2.109  -0.007   1.625
 1503  SOL  HW2 4651   2.093   0.013   1.774
 1504  SOL   OW 4652   1.279   1.401   1.468
 1504  SOL  HW1 4653   1.270   1.306   1.468
 1504  SOL  HW2 4654   1.282   1.424   1.375
 1505  SOL   OW 4655   0.589   0.624   0.015
 1505  SOL  HW1 4656   0.606   0.530   0.018
 1505  SOL  HW2 4657   0.676   0.664   0.021
 1506  SOL   OW 4658   0.622   1.301   0.400
 1506  SOL  HW1 4659   0.712   1.272   0.384
 1506  SOL  HW2 4660   0.588   1.323   0.314
 1507  SOL   OW 4661   0.131   1.945   2.038
 1507  SOL  HW1 4662   0.083   2.021   2.003
 1507  SOL  HW2 4663   0.078   1.870   2.011
 1508  SOL   OW 4664   0.626   1.871   0.664
 1508  SOL  HW1 4665   0.583   1.891   0.581
 1508  SOL  HW2 4666   0.628   1.955   0.710
 1509  SOL   OW 4667   0.281   3.536   2.245
 1509  SOL  HW1 4668   0.276   3.629   2.264
 1509  SOL  HW2 4669   0.300   3.531   2.152
 1510  SOL   OW 4670   3.030   2.169   3.258
 1510  SOL  HW1 4671   3.089   2.240   3.284
 1510  SOL  HW2 4672   3.065   2.139   3.174
 1511  SOL   OW 4673   1.478   0.464   1.850
 1511  SOL  HW1 4674   1.394   0.419   1.840
 1511  SOL  HW2 4675   1.514   0.429   1.931
 1512  SOL   OW 4676   2.132   3.303   3.584
 1512  SOL  HW1 4677   2.077   3.358   3.528
 1512  SOL  HW2 4678   2.097   3.215   3.574
 1513  SOL   OW 4679   0.718   3.351   1.912
 1513  SOL  HW1 4680   0.663   3.295   1.857
 1513  SOL  HW2 4681   0.785   3.292   1.947
 1514  SOL   OW 4682   2.093   3.338   1.053
 1514  SOL  HW1 4683   2.066   3.248   1.035
 1514  SOL  HW2 4684   2.011   3.388   1.052
 1515  SOL   OW 4685   2.753   2.507   0.000
 1515  SOL  HW1 4686   2.819   2.574   0.020
 1515  SOL  HW2 4687   2.788   2.427   0.039
 1516  SOL   OW 4688   0.395   1.111   1.601
 1516  SOL  HW1 4689   0.379   1.018   1.583
 1516  SOL  HW2 4690   0.478   1.111   1.649
 1517  SOL   OW 4691   2.816   0.433   3.068
 1517  SOL  HW1 4692   2.907   0.425   3.039
 1517  SOL  HW2 4693   2.780   0.503   3.013
 1518  SOL   OW 4694   3.139   2.496   3.141
 1518  SOL  HW1 4695   3.075   2.545   3.193
 1518  SOL  HW2 4696   3.126   2.528   3.052
 1519  SOL   OW 4697   1.034   0.905   2.429
 1519  SOL  HW1 4698   1.125   0.934   2.436
 1519  SOL  HW2 4699   0.991   0.973   2.378
 1520  SOL   OW 4700   3.280   1.628   0.167
 1520  SOL  HW1 4701   3.197   1.595   0.133
 1520  SOL  HW2 4702   3.265   1.639   0.261
 1521  SOL   OW 4703   2.706   0.935   1.335
 1521  SOL  HW1 4704   2.775   0.985   1.378
 1521  SOL  HW2 4705   2.694   0.858   1.390
 1522  SOL   OW 4706   3.495   0.080   2.452
 1522  SOL  HW1 4707   3.547   0.130   2.389
 1522  SOL  HW2 4708   3.404   0.099   2.428
 1523  SOL   OW 4709   2.467   1.549   1.327
 1523  SOL  HW1 4710   2.385   1.594   1.348
 1523  SOL  HW2 4711   2.495   1.588   1.244
 1524  SOL   OW 4712   1.029   1.119   1.158
 1524  SOL  HW1 4713   0.965   1.164   1.214
 1524  SOL  HW2 4714   1.008   1.026   1.168
 1525  SOL   OW 4715   0.332   2.029   1.849
 1525  SOL  HW1 4716   0.312   1.950   1.800
 1525  SOL  HW2 4717   0.277   2.024   1.927
 1526  SOL   OW 4718   0.828   1.368   3.458
 1526  SOL  HW1 4719   0.841   1.290   3.404
 1526  SOL  HW2 4720   0.830   1.441   3.396
 1527  SOL   OW 4721   0.528   1.572   1.787
 1527  SOL  HW1 4722   0.453   1.519   1.760
 1527  SOL  HW2 4723   0.547   1.543   1.876
 1528  SOL   OW 4724   1.861   0.986   1.476
 1528  SOL  HW1 4725   1.927   0.999   1.407
 1528  SOL  HW2 4726   1.799   0.923   1.438
 1529  SOL   OW 4727   0.521   1.249   1.391
 1529  SOL  HW1 4728   0.593   1.192   1.363
 1529  SOL  HW2 4729   0.471   1.196   1.453
 1530  SOL   OW 4730   3.419   3.320   1.784
 1530  SOL  HW1 4731   3.429   3.344   1.876
 1530  SOL  HW2 4732   3.507   3.331   1.747
 1531  SOL   OW 4733   2.949   3.091   3.135
 1531  SOL  HW1 4734   3.035   3.112   3.100
 1531  SOL  HW2 4735   2.965   3.019   3.196
 1532  SOL   OW 4736   0.666   0.452   0.883
 1532  SOL  HW1 4737   0.584   0.408   0.905
 1532  SOL  HW2 4738   0.734   0.393   0.914
 1533  SOL   OW 4739   1.702   2.785   2.219
 1533  SOL  HW1 4740   1.720   2.731   2.295
 1533  SOL  HW2 4741   1.779   2.774   2.162
 1534  SOL   OW 4742   0.951   1.489   1.903
 1534  SOL  HW1 4743   1.012   1.488   1.829
 1534  SOL  HW2 4744   0.971   1.571   1.948
 1535  SOL   OW 4745   0.926   1.069   3.743
 1535  SOL  HW1 4746   0.958   1.155   3.768
 1535  SOL  HW2 4747   0.936   1.066   3.648
 1536  SOL   OW 4748   0.142   1.927   0.719
 1536  SOL  HW1 4749   0.074   1.887   0.773
 1536  SOL  HW2 4750   0.112   1.914   0.629
 1537  SOL   OW 4751   1.182   3.264   2.528
 1537  SOL  HW1 4752   1.090   3.273   2.555
 1537  SOL  HW2 4753   1.179   3.206   2.452
 1538  SOL   OW 4754   0.952   0.429   1.565
 1538  SOL  HW1 4755   0.993   0.467   1.642
 1538  SOL  HW2 4756   0.886   0.369   1.600
 1539  SOL   OW 4757   2.300   0.067   2.510
 1539  SOL  HW1 4758   2.207   0.046   2.518
 1539  SOL  HW2 4759   2.335  -0.003   2.456
 1540  SOL   OW 4760   3.535   0.081   1.985
 1540  SOL  HW1 4761   3.585   0.126   1.917
 1540  SOL  HW2 4762   3.487   0.012   1.938
 1541  SOL   OW 4763   1.284   1.830   1.461
 1541  SOL  HW1 4764   1.351   1.807   1.526
 1541  SOL  HW2 4765   1.298   1.924   1.446
 1542  SOL   OW 4766   1.980   0.447   0.929
 1542  SOL  HW1 4767   2.060   0.498   0.917
 1542  SOL  HW2 4768   1.916   0.511   0.961
 1543  SOL   OW 4769   3.006   3.194   0.558
 1543  SOL  HW1 4770   3.040   3.150   0.636
 1543  SOL  HW2 4771   2.911   3.183   0.563
 1544  SOL   OW 4772   2.450   2.632   0.140
 1544  SOL  HW1 4773   2.438   2.545   0.102
 1544  SOL  HW2 4774   2.443   2.619   0.234
 1545  SOL   OW 4775   3.448   2.981   1.886
 1545  SOL  HW1 4776   3.454   2.929   1.806
 1545  SOL  HW2 4777   3.538   3.007   1.904
 1546  SOL   OW 4778   3.108   1.127   2.472
 1546  SOL  HW1 4779   3.060   1.044   2.472
 1546  SOL  HW2 4780   3.147   1.133   2.385
 1547  SOL   OW 4781   1.864   3.483   3.685
 1547  SOL  HW1 4782   1.805   3.558   3.676
 1547  SOL  HW2 4783   1.890   3.463   3.595
 1548  SOL   OW 4784   2.571   3.191   1.102
 1548  SOL  HW1 4785   2.557   3.100   1.075
 1548  SOL  HW2 4786   2.499   3.210   1.162
 1549  SOL   OW 4787   1.699   1.805   2.528
 1549  SOL  HW1 4788   1.748   1.761   2.597
 1549  SOL  HW2 4789   1.654   1.735   2.482
 1550  SOL   OW 4790   0.425   1.482   3.539
 1550  SOL  HW1 4791   0.501   1.425   3.547
 1550  SOL  HW2 4792   0.382   1.455   3.458
 1551  SOL   OW 4793   1.562   1.278   0.366
 1551  SOL  HW1 4794   1.634   1.217   0.351
 1551  SOL  HW2 4795   1.576   1.310   0.455
 1552  SOL   OW 4796   0.200   0.307   1.336
 1552  SOL  HW1 4797   0.249   0.364   1.277
 1552  SOL  HW2 4798   0.268   0.257   1.382
 1553  SOL   OW 4799   2.603   1.762   0.633
 1553  SOL  HW1 4800   2.548   1.785   0.557
 1553  SOL  HW2 4801   2.541   1.729   0.698
 1554  SOL   OW 4802   2.836   2.431   3.479
 1554  SOL  HW1 4803   2.744   2.448   3.499
 1554  SOL  HW2 4804   2.880   2.438   3.564
 1555  SOL   OW 4805   2.211   0.325   3.272
 1555  SOL  HW1 4806   2.194   0.380   3.349
 1555  SOL  HW2 4807   2.126   0.287   3.251
 1556  SOL   OW 4808   3.179   2.669   0.202
 1556  SOL  HW1 4809   3.102   2.679   0.147
 1556  SOL  HW2 4810   3.145   2.647   0.288
 1557  SOL   OW 4811   2.666   3.179   3.128
 1557  SOL  HW1 4812   2.752   3.152   3.159
 1557  SOL  HW2 4813   2.662   3.273   3.147
 1558  SOL   OW 4814   3.291   2.185   2.622
 1558  SOL  HW1 4815   3.196   2.182   2.609
 1558  SOL  HW2 4816   3.320   2.096   2.605
 1559  SOL   OW 4817   0.143   3.566   0.373
 1559  SOL  HW1 4818   0.221   3.589   0.322
 1559  SOL  HW2 4819   0.098   3.649   0.387
 1560  SOL   OW 4820   0.291   0.478   2.250
 1560  SOL  HW1 4821   0.344   0.486   2.172
 1560  SOL  HW2 4822   0.323   0.399   2.293
 1561  SOL   OW 4823   1.362   2.417   1.019
 1561  SOL  HW1 4824   1.403   2.360   1.084
 1561  SOL  HW2 4825   1.421   2.415   0.945
 1562  SOL   OW 4826   1.772   1.816   3.436
 1562  SOL  HW1 4827   1.785   1.774   3.521
 1562  SOL  HW2 4828   1.682   1.848   3.439
 1563  SOL   OW 4829   2.968   2.262   1.507
 1563  SOL  HW1 4830   2.920   2.183   1.531
 1563  SOL  HW2 4831   2.909   2.334   1.528
 1564  SOL   OW 4832   3.189   0.941   3.598
 1564  SOL  HW1 4833   3.113   0.999   3.599
 1564  SOL  HW2 4834   3.156   0.856   3.624
 1565  SOL   OW 4835   2.866   1.454   0.686
 1565  SOL  HW1 4836   2.922   1.502   0.625
 1565  SOL  HW2 4837   2.854   1.368   0.645
 1566  SOL   OW 4838   2.789   1.283   3.505
 1566  SOL  HW1 4839   2.795   1.369   3.462
 1566  SOL  HW2 4840   2.760   1.224   3.435
 1567  SOL   OW 4841   2.911   3.240   1.012
 1567  SOL  HW1 4842   2.876   3.198   0.933
 1567  SOL  HW2 4843   2.931   3.168   1.071
 1568  SOL   OW 4844   2.733   1.349   0.253
 1568  SOL  HW1 4845   2.784   1.400   0.317
 1568  SOL  HW2 4846   2.647   1.341   0.293
 1569  SOL   OW 4847   0.228   2.478   3.166
 1569  SOL  HW1 4848   0.307   2.530   3.155
 1569  SOL  HW2 4849   0.164   2.539   3.202
 1570  SOL   OW 4850   1.542  -0.010   3.380
 1570  SOL  HW1 4851   1.516   0.012   3.290
 1570  SOL  HW2 4852   1.620   0.043   3.396
 1571  SOL   OW 4853   1.682   0.920   2.249
 1571  SOL  HW1 4854   1.749   0.852   2.260
 1571  SOL  HW2 4855   1.725   1.001   2.277
 1572  SOL   OW 4856   0.362   3.517   0.584
 1572  SOL  HW1 4857   0.379   3.606   0.553
 1572  SOL  HW2 4858   0.337   3.527   0.676
 1573  SOL   OW 4859   3.557   3.164   1.136
 1573  SOL  HW1 4860   3.549   3.196   1.227
 1573  SOL  HW2 4861   3.650   3.143   1.126
 1574  SOL   OW 4862   3.651   0.407   1.733
 1574  SOL  HW1 4863   3.620   0.318   1.752
 1574  SOL  HW2 4864   3.670   0.444   1.819
 1575  SOL   OW 4865   1.538   2.675   0.877
 1575  SOL  HW1 4866   1.531   2.591   0.831
 1575  SOL  HW2 4867   1.620   2.668   0.926
 1576  SOL   OW 4868   1.305   0.174   1.804
 1576  SOL  HW1 4869   1.296   0.201   1.895
 1576  SOL  HW2 4870   1.224   0.127   1.784
 1577  SOL   OW 4871   1.631   1.499   1.511
 1577  SOL  HW1 4872   1.724   1.521   1.511
 1577  SOL  HW2 4873   1.621   1.436   1.440
 1578  SOL   OW 4874   1.652   0.965   2.828
 1578  SOL  HW1 4875   1.565   0.968   2.788
 1578  SOL  HW2 4876   1.661   1.051   2.870
 1579  SOL   OW 4877   0.708   2.450   2.611
 1579  SOL  HW1 4878   0.788   2.431   2.661
 1579  SOL  HW2 4879   0.647   2.380   2.636
 1580  SOL   OW 4880   0.666   1.025   1.332
 1580  SOL  HW1 4881   0.758   1.038   1.357
 1580  SOL  HW2 4882   0.656   0.930   1.327
 1581  SOL   OW 4883   1.693   1.315   0.957
 1581  SOL  HW1 4884   1.634   1.384   0.987
 1581  SOL  HW2 4885   1.677   1.243   1.018
 1582  SOL   OW 4886   1.978   3.510   2.652
 1582  SOL  HW1 4887   2.059   3.548   2.686
 1582  SOL  HW2 4888   1.997   3.416   2.643
 1583  SOL   OW 4889   0.462   3.337   0.189
 1583  SOL  HW1 4890   0.502   3.409   0.238
 1583  SOL  HW2 4891   0.391   3.378   0.141
 1584  SOL   OW 4892   1.747   2.332   1.401
 1584  SOL  HW1 4893   1.792   2.298   1.478
 1584  SOL  HW2 4894   1.809   2.318   1.329
 1585  SOL   OW 4895   1.488   1.401   2.016
 1585  SOL  HW1 4896   1.498   1.381   1.923
 1585  SOL  HW2 4897   1.509   1.494   2.024
 1586  SOL   OW 4898   3.320   3.060   3.384
 1586  SOL  HW1 4899   3.337   3.002   3.309
 1586  SOL  HW2 4900   3.285   3.002   3.451
 1587  SOL   OW 4901   2.718   0.442   1.270
 1587  SOL  HW1 4902   2.698   0.535   1.273
 1587  SOL  HW2 4903   2.753   0.421   1.356
 1588  SOL   OW 4904   0.268   2.151   0.853
 1588  SOL  HW1 4905   0.263   2.058   0.832
 1588  SOL  HW2 4906   0.232   2.196   0.776
 1589  SOL   OW 4907   1.126   0.005   3.144
 1589  SOL  HW1 4908   1.185   0.075   3.115
 1589  SOL  HW2 4909   1.145  -0.067   3.084
 1590  SOL   OW 4910   3.132   1.201   0.817
 1590  SOL  HW1 4911   3.088   1.270   0.867
 1590  SOL  HW2 4912   3.061   1.145   0.786
 1591  SOL   OW 4913   3.541   2.051   1.270
 1591  SOL  HW1 4914   3.535   2.138   1.230
 1591  SOL  HW2 4915   3.635   2.039   1.286
 1592  SOL   OW 4916   1.732   0.933   3.485
 1592  SOL  HW1 4917   1.752   0.920   3.578
 1592  SOL  HW2 4918   1.764   1.021   3.466
 1593  SOL   OW 4919   1.805   2.611   1.617
 1593  SOL  HW1 4920   1.769   2.665   1.687
 1593  SOL  HW2 4921   1.900   2.618   1.627
 1594  SOL   OW 4922   1.541   3.635   2.362
 1594  SOL  HW1 4923   1.591   3.580   2.422
 1594  SOL  HW2 4924   1.582   3.621   2.277
 1595  SOL   OW 4925   2.409   3.693   2.780
 1595  SOL  HW1 4926   2.391   3.722   2.690
 1595  SOL  HW2 4927   2.455   3.766   2.820
 1596  SOL   OW 4928   0.724   3.191   0.570
 1596  SOL  HW1 4929   0.820   3.191   0.575
 1596  SOL  HW2 4930   0.702   3.279   0.540
 1597  SOL   OW 4931   0.456   1.965   2.458
 1597  SOL  HW1 4932   0.469   2.058   2.476
 1597  SOL  HW2 4933   0.531   1.940   2.405
 1598  SOL   OW 4934   2.382   1.589   1.631
 1598  SOL  HW1 4935   2.466   1.624   1.601
 1598  SOL  HW2 4936   2.348   1.540   1.556
 1599  SOL   OW 4937   1.789   3.551   0.333
 1599  SOL  HW1 4938   1.757   3.575   0.246
 1599  SOL  HW2 4939   1.720   3.580   0.393
 1600  SOL   OW 4940   0.755   3.713   0.874
 1600  SOL  HW1 4941   0.764   3.735   0.781
 1600  SOL  HW2 4942   0.763   3.617   0.877
 1601  SOL   OW 4943   3.697   2.143   1.914
 1601  SOL  HW1 4944   3.733   2.229   1.932
 1601  SOL  HW2 4945   3.602   2.157   1.911
 1602  SOL   OW 4946   0.600   1.119   3.073
 1602  SOL  HW1 4947   0.648   1.199   3.051
 1602  SOL  HW2 4948   0.515   1.130   3.029
 1603  SOL   OW 4949   0.936   2.433   0.770
 1603  SOL  HW1 4950   0.972   2.374   0.837
 1603  SOL  HW2 4951   0.844   2.444   0.796
 1604  SOL   OW 4952   0.296   2.284   2.950
 1604  SOL  HW1 4953   0.256   2.335   3.020
 1604  SOL  HW2 4954   0.260   2.196   2.960
 1605  SOL   OW 4955   1.488   0.190   1.091
 1605  SOL  HW1 4956   1.449   0.110   1.127
 1605  SOL  HW2 4957   1.567   0.203   1.143
 1606  SOL   OW 4958   2.667   1.504   3.342
 1606  SOL  HW1 4959   2.650   1.513   3.248
 1606  SOL  HW2 4960   2.581   1.484   3.380
 1607  SOL   OW 4961   0.032   2.992   1.849
 1607  SOL  HW1 4962   0.070   2.923   1.903
 1607  SOL  HW2 4963   0.095   3.064   1.856
 1608  SOL   OW 4964   2.060   2.467   3.316
 1608  SOL  HW1 4965   2.038   2.397   3.254
 1608  SOL  HW2 4966   2.014   2.444   3.396
 1609  SOL   OW 4967   0.344   0.623   3.576
 1609  SOL  HW1 4968   0.289   0.570   3.633
 1609  SOL  HW2 4969   0.433   0.610   3.608
 1610  SOL   OW 4970   1.297   1.201   1.763
 1610  SOL  HW1 4971   1.365   1.263   1.736
 1610  SOL  HW2 4972   1.339   1.144   1.827
 1611  SOL   OW 4973   3.103   0.912   1.787
 1611  SOL  HW1 4974   3.022   0.896   1.738
 1611  SOL  HW2 4975   3.074   0.957   1.867
 1612  SOL   OW 4976   2.247   3.675   2.985
 1612  SOL  HW1 4977   2.307   3.670   2.910
 1612  SOL  HW2 4978   2.304   3.684   3.061
 1613  SOL   OW 4979   0.050   0.598   1.153
 1613  SOL  HW1 4980   0.093   0.548   1.085
 1613  SOL  HW2 4981   0.015   0.675   1.109
 1614  SOL   OW 4982   0.941   1.013   3.472
 1614  SOL  HW1 4983   0.914   1.078   3.407
 1614  SOL  HW2 4984   0.879   0.941   3.461
 1615  SOL   OW 4985   2.459   0.669   1.936
 1615  SOL  HW1 4986   2.433   0.703   2.021
 1615  SOL  HW2 4987   2.385   0.615   1.908
 1616  SOL   OW 4988   2.073   0.416   2.174
 1616  SOL  HW1 4989   2.155   0.449   2.211
 1616  SOL  HW2 4990   2.089   0.322   2.162
 1617  SOL   OW 4991   2.888   0.841   3.055
 1617  SOL  HW1 4992   2.858   0.770   2.998
 1617  SOL  HW2 4993   2.807   0.874   3.095
 1618  SOL   OW 4994   1.396   3.478   0.768
 1618  SOL  HW1 4995   1.428   3.506   0.682
 1618  SOL  HW2 4996   1.344   3.551   0.799
 1619  SOL   OW 4997   1.069   3.007   2.957
 1619  SOL  HW1 4998   1.004   2.942   2.985
 1619  SOL  HW2 4999   1.137   3.002   3.024
 1620  SOL   OW 5000   0.338   1.001   1.149
 1620  SOL  HW1 5001   0.359   0.961   1.233
 1620  SOL  HW2 5002   0.409   0.973   1.091
 1621  SOL   OW 5003   3.309   1.397   2.508
 1621  SOL  HW1 5004   3.247   1.457   2.550
 1621  SOL  HW2 5005   3.380   1.389   2.571
 1622  SOL   OW 5006   0.624   1.653   1.124
 1622  SOL  HW1 5007   0.653   1.676   1.036
 1622  SOL  HW2 5008   0.604   1.559   1.119
 1623  SOL   OW 5009   2.435   2.546   0.414
 1623  SOL  HW1 5010   2.409   2.469   0.465
 1623  SOL  HW2 5011   2.429   2.619   0.475
 1624  SOL   OW 5012   2.171   0.031   0.732
 1624  SOL  HW1 5013   2.161  -0.064   0.735
 1624  SOL  HW2 5014   2.092   0.062   0.686
 1625  SOL   OW 5015   0.824   3.420   0.208
 1625  SOL  HW1 5016   0.915   3.418   0.176
 1625  SOL  HW2 5017   0.807   3.329   0.234
 1626  SOL   OW 5018   2.256   0.518   1.843
 1626  SOL  HW1 5019   2.219   0.435   1.813
 1626  SOL  HW2 5020   2.183   0.561   1.889
 1627  SOL   OW 5021   1.027   0.436   1.008
 1627  SOL  HW1 5022   1.008   0.357   0.959
 1627  SOL  HW2 5023   1.107   0.416   1.057
 1628  SOL   OW 5024   0.330   0.764   2.489
 1628  SOL  HW1 5025   0.410   0.738   2.444
 1628  SOL  HW2 5026   0.264   0.703   2.458
 1629  SOL   OW 5027   3.129   2.626   3.581
 1629  SOL  HW1 5028   3.184   2.694   3.542
 1629  SOL  HW2 5029   3.184   2.548   3.583
 1630  SOL   OW 5030   0.505   2.684   0.632
 1630  SOL  HW1 5031   0.515   2.721   0.720
 1630  SOL  HW2 5032   0.411   2.670   0.622
 1631  SOL   OW 5033   3.604   1.571   2.499
 1631  SOL  HW1 5034   3.650   1.546   2.579
 1631  SOL  HW2 5035   3.530   1.624   2.528
 1632  SOL   OW 5036   0.246   2.544   2.391
 1632  SOL  HW1 5037   0.184   2.510   2.327
 1632  SOL  HW2 5038   0.255   2.473   2.455
 1633  SOL   OW 5039   2.867   3.696   2.621
 1633  SOL  HW1 5040   2.927   3.622   2.623
 1633  SOL  HW2 5041   2.803   3.676   2.689
 1634  SOL   OW 5042   2.709   2.338   1.580
 1634  SOL  HW1 5043   2.685   2.255   1.539
 1634  SOL  HW2 5044   2.642   2.399   1.549
 1635  SOL   OW 5045   3.603   1.371   3.334
 1635  SOL  HW1 5046   3.632   1.394   3.423
 1635  SOL  HW2 5047   3.558   1.287   3.344
 1636  SOL   OW 5048   2.596   3.543   3.105
 1636  SOL  HW1 5049   2.603   3.527   3.199
 1636  SOL  HW2 5050   2.556   3.630   3.098
 1637  SOL   OW 5051   1.071   3.213   3.322
 1637  SOL  HW1 5052   1.014   3.137   3.327
 1637  SOL  HW2 5053   1.102   3.227   3.411
 1638  SOL   OW 5054   3.251   1.011   1.557
 1638  SOL  HW1 5055   3.287   0.937   1.509
 1638  SOL  HW2 5056   3.209   0.973   1.634
 1639  SOL   OW 5057   1.565   2.163   0.905
 1639  SOL  HW1 5058   1.568   2.127   0.993
 1639  SOL  HW2 5059   1.527   2.094   0.851
 1640  SOL   OW 5060   1.589   3.011   2.853
 1640  SOL  HW1 5061   1.611   2.918   2.843
 1640  SOL  HW2 5062   1.654   3.044   2.915
 1641  SOL   OW 5063   1.280   3.712   0.865
 1641  SOL  HW1 5064   1.260   3.788   0.809
 1641  SOL  HW2 5065   1.195   3.683   0.896
 1642  SOL   OW 5066   1.411   1.425   2.550
 1642  SOL  HW1 5067   1.450   1.441   2.464
 1642  SOL  HW2 5068   1.479   1.448   2.612
 1643  SOL   OW 5069   3.487   1.432   2.304
 1643  SOL  HW1 5070   3.419   1.383   2.351
 1643  SOL  HW2 5071   3.537   1.475   2.373
 1644  SOL   OW 5072   1.064   0.972   0.634
 1644  SOL  HW1 5073   1.143   1.027   0.634
 1644  SOL  HW2 5074   1.056   0.942   0.725
 1645  SOL   OW 5075   3.079   0.713   0.619
 1645  SOL  HW1 5076   2.988   0.701   0.645
 1645  SOL  HW2 5077   3.117   0.766   0.690
 1646  SOL   OW 5078   2.731   1.715   3.028
 1646  SOL  HW1 5079   2.820   1.736   3.053
 1646  SOL  HW2 5080   2.711   1.775   2.956
 1647  SOL   OW 5081   0.070   2.007   3.334
 1647  SOL  HW1 5082   0.100   2.091   3.369
 1647  SOL  HW2 5083  -0.023   2.021   3.315
 1648  SOL   OW 5084   0.123   3.030   0.089
 1648  SOL  HW1 5085   0.100   3.089   0.161
 1648  SOL  HW2 5086   0.122   3.086   0.011
 1649  SOL   OW 5087   0.009   2.035   2.723
 1649  SOL  HW1 5088   0.104   2.042   2.720
 1649  SOL  HW2 5089  -0.013   1.970   2.657
 1650  SOL   OW 5090   1.531   3.595   1.474
 1650  SOL  HW1 5091   1.512   3.551   1.391
 1650  SOL  HW2 5092   1.452   3.643   1.495
 1651  SOL   OW 5093   2.438   1.306   2.127
 1651  SOL  HW1 5094   2.405   1.317   2.038
 1651  SOL  HW2 5095   2.413   1.217   2.152
 1652  SOL   OW 5096   2.250   1.985   1.590
 1652  SOL  HW1 5097   2.155   1.988   1.576
 1652  SOL  HW2 5098   2.259   1.974   1.685
 1653  SOL   OW 5099   1.559   1.684   0.431
 1653  SOL  HW1 5100   1.522   1.749   0.371
 1653  SOL  HW2 5101   1.608   1.624   0.375
 1654  SOL   OW 5102   0.850   3.301   1.582
 1654  SOL  HW1 5103   0.758   3.324   1.596
 1654  SOL  HW2 5104   0.898   3.380   1.608
 1655  SOL   OW 5105   3.412   0.680   1.102
 1655  SOL  HW1 5106   3.348   0.730   1.154
 1655  SOL  HW2 5107   3.483   0.742   1.087
 1656  SOL   OW 5108   1.189   3.409   1.433
 1656  SOL  HW1 5109   1.182   3.454   1.517
 1656  SOL  HW2 5110   1.282   3.390   1.423
 1657  SOL   OW 5111   2.889   3.567   3.205
 1657  SOL  HW1 5112   2.902   3.481   3.245
 1657  SOL  HW2 5113   2.806   3.560   3.158
 1658  SOL   OW 5114   2.057   0.575   0.559
 1658  SOL  HW1 5115   2.075   0.486   0.529
 1658  SOL  HW2 5116   2.142   0.607   0.589
 1659  SOL   OW 5117   3.456   2.605   2.657
 1659  SOL  HW1 5118   3.394   2.647   2.598
 1659  SOL  HW2 5119   3.542   2.620   2.616
 1660  SOL   OW 5120   1.423   2.486   3.191
 1660  SOL  HW1 5121   1.360   2.416   3.172
 1660  SOL  HW2 5122   1.406   2.508   3.283
 1661  SOL   OW 5123   3.359   1.504   3.609
 1661  SOL  HW1 5124   3.348   1.418   3.568
 1661  SOL  HW2 5125   3.333   1.491   3.700
 1662  SOL   OW 5126   1.068   1.347   0.724
 1662  SOL  HW1 5127   0.987   1.321   0.680
 1662  SOL  HW2 5128   1.130   1.363   0.653
 1663  SOL   OW 5129   0.534   1.523   2.094
 1663  SOL  HW1 5130   0.478   1.568   2.158
 1663  SOL  HW2 5131   0.507   1.431   2.099
 1664  SOL   OW 5132   2.152   1.852   3.493
 1664  SOL  HW1 5133   2.191   1.781   3.442
 1664  SOL  HW2 5134   2.225   1.890   3.540
 1665  SOL   OW 5135   0.956   2.854   2.128
 1665  SOL  HW1 5136   1.048   2.853   2.153
 1665  SOL  HW2 5137   0.956   2.880   2.036
 1666  SOL   OW 5138   1.764   1.896   0.954
 1666  SOL  HW1 5139   1.744   1.958   0.883
 1666  SOL  HW2 5140   1.708   1.925   1.026
 1667  SOL   OW 5141   3.645   0.362   0.881
 1667  SOL  HW1 5142   3.573   0.330   0.826
 1667  SOL  HW2 5143   3.648   0.299   0.954
 1668  SOL   OW 5144   2.723   0.882   0.190
 1668  SOL  HW1 5145   2.627   0.880   0.193
 1668  SOL  HW2 5146   2.749   0.790   0.197
 1669  SOL   OW 5147   1.722   1.701   2.832
 1669  SOL  HW1 5148   1.705   1.785   2.876
 1669  SOL  HW2 5149   1.776   1.652   2.894
 1670  SOL   OW 5150   3.661   2.902   1.465
 1670  SOL  HW1 5151   3.749   2.910   1.501
 1670  SOL  HW2 5152   3.674   2.904   1.370
 1671  SOL   OW 5153   3.580   0.185   0.218
 1671  SOL  HW1 5154   3.600   0.106   0.268
 1671  SOL  HW2 5155   3.485   0.196   0.226
 1672  SOL   OW 5156   0.270   2.619   1.461
 1672  SOL  HW1 5157   0.306   2.629   1.373
 1672  SOL  HW2 5158   0.237   2.529   1.462
 1673  SOL   OW 5159   3.465   0.505   1.506
 1673  SOL  HW1 5160   3.528   0.468   1.568
 1673  SOL  HW2 5161   3.380   0.477   1.538
 1674  SOL   OW 5162   0.988   2.919   1.862
 1674  SOL  HW1 5163   1.045   2.985   1.823
 1674  SOL  HW2 5164   0.903   2.933   1.821
 1675  SOL   OW 5165   0.311   3.163   2.712
 1675  SOL  HW1 5166   0.317   3.147   2.807
 1675  SOL  HW2 5167   0.221   3.140   2.690
 1676  SOL   OW 5168   3.549   3.054   3.099
 1676  SOL  HW1 5169   3.568   3.141   3.065
 1676  SOL  HW2 5170   3.573   3.059   3.192
 1677  SOL   OW 5171   1.572   3.004   0.110
 1677  SOL  HW1 5172   1.586   3.063   0.035
 1677  SOL  HW2 5173   1.572   2.916   0.071
 1678  SOL   OW 5174   0.105   3.094   1.104
 1678  SOL  HW1 5175   0.175   3.056   1.158
 1678  SOL  HW2 5176   0.130   3.186   1.095
 1679  SOL   OW 5177   3.135   3.587   2.038
 1679  SOL  HW1 5178   3.123   3.583   2.133
 1679  SOL  HW2 5179   3.092   3.508   2.005
 1680  SOL   OW 5180   0.873   0.671   0.539
 1680  SOL  HW1 5181   0.858   0.659   0.445
 1680  SOL  HW2 5182   0.966   0.653   0.551
 1681  SOL   OW 5183   3.116   0.461   3.138
 1681  SOL  HW1 5184   3.150   0.518   3.069
 1681  SOL  HW2 5185   3.076   0.520   3.201
 1682  SOL   OW 5186   0.485   3.080   0.465
 1682  SOL  HW1 5187   0.571   3.105   0.500
 1682  SOL  HW2 5188   0.437   3.163   0.459
 1683  SOL   OW 5189   2.119   1.511   1.100
 1683  SOL  HW1 5190   2.068   1.540   1.176
 1683  SOL  HW2 5191   2.068   1.439   1.064
 1684  SOL   OW 5192   3.114   0.659   2.884
 1684  SOL  HW1 5193   3.203   0.676   2.915
 1684  SOL  HW2 5194   3.121   0.577   2.834
 1685  SOL   OW 5195   1.995   3.311   2.046
 1685  SOL  HW1 5196   1.901   3.313   2.064
 1685  SOL  HW2 5197   2.003   3.346   1.958
 1686  SOL   OW 5198   0.465   0.744   0.226
 1686  SOL  HW1 5199   0.523   0.728   0.151
 1686  SOL  HW2 5200   0.385   0.779   0.186
 1687  SOL   OW 5201   2.875   0.380   1.869
 1687  SOL  HW1 5202   2.867   0.470   1.902
 1687  SOL  HW2 5203   2.949   0.343   1.917
 1688  SOL   OW 5204   2.728   1.854   3.652
 1688  SOL  HW1 5205   2.774   1.794   3.594
 1688  SOL  HW2 5206   2.673   1.906   3.594
 1689  SOL   OW 5207   3.267   0.975   0.661
 1689  SOL  HW1 5208   3.251   0.979   0.755
 1689  SOL  HW2 5209   3.350   0.928   0.653
 1690  SOL   OW 5210   1.426   0.276   3.257
 1690  SOL  HW1 5211   1.363   0.281   3.328
 1690  SOL  HW2 5212   1.373   0.278   3.177
 1691  SOL   OW 5213   3.469   1.801   0.424
 1691  SOL  HW1 5214   3.483   1.713   0.389
 1691  SOL  HW2 5215   3.378   1.799   0.455
 1692  SOL   OW 5216   2.425   0.614   0.463
 1692  SOL  HW1 5217   2.512   0.640   0.433
 1692  SOL  HW2 5218   2.404   0.537   0.410
 1693  SOL   OW 5219   2.336   2.227   2.360
 1693  SOL  HW1 5220   2.418   2.208   2.314
 1693  SOL  HW2 5221   2.317   2.148   2.410
 1694  SOL   OW 5222   1.598   3.199   3.624
 1694  SOL  HW1 5223   1.660   3.154   3.567
 1694  SOL  HW2 5224   1.512   3.171   3.594
 1695  SOL   OW 5225   1.249   2.901   3.424
 1695  SOL  HW1 5226   1.243   2.938   3.336
 1695  SOL  HW2 5227   1.180   2.835   3.427
 1696  SOL   OW 5228   2.336   0.469   2.280
 1696  SOL  HW1 5229   2.382   0.386   2.278
 1696  SOL  HW2 5230   2.404   0.535   2.266
 1697  SOL   OW 5231   2.347   1.177   2.508
 1697  SOL  HW1 5232   2.306   1.245   2.455
 1697  SOL  HW2 5233   2.441   1.190   2.496
 1698  SOL   OW 5234   1.494   2.151   2.205
 1698  SOL  HW1 5235   1.527   2.175   2.118
 1698  SOL  HW2 5236   1.498   2.055   2.206
 1699  SOL   OW 5237   2.334   0.032   1.418
 1699  SOL  HW1 5238   2.361   0.023   1.326
 1699  SOL  HW2 5239   2.247  -0.006   1.422
 1700  SOL   OW 5240   0.241   1.302   1.017
 1700  SOL  HW1 5241   0.269   1.210   1.012
 1700  SOL  HW2 5242   0.148   1.300   0.998
 1701  SOL   OW 5243   0.780   3.403   3.496
 1701  SOL  HW1 5244   0.747   3.324   3.541
 1701  SOL  HW2 5245   0.853   3.433   3.551
 1702  SOL   OW 5246   0.375   3.135   2.978
 1702  SOL  HW1 5247   0.439   3.129   3.050
 1702  SOL  HW2 5248   0.356   3.045   2.955
 1703  SOL   OW 5249   3.358   2.893   3.195
 1703  SOL  HW1 5250   3.285   2.868   3.139
 1703  SOL  HW2 5251   3.422   2.932   3.135
 1704  SOL   OW 5252   2.484   0.076   3.076
 1704  SOL  HW1 5253   2.467   0.148   3.138
 1704  SOL  HW2 5254   2.565   0.100   3.032
 1705  SOL   OW 5255   0.381   3.603   2.876
 1705  SOL  HW1 5256   0.412   3.694   2.877
 1705  SOL  HW2 5257   0.403   3.571   2.789
 1706  SOL   OW 5258   1.878   2.356   0.735
 1706  SOL  HW1 5259   1.793   2.311   0.735
 1706  SOL  HW2 5260   1.941   2.288   0.711
 1707  SOL   OW 5261   0.528   2.208   1.956
 1707  SOL  HW1 5262   0.538   2.177   2.046
 1707  SOL  HW2 5263   0.487   2.135   1.910
 1708  SOL   OW 5264   3.062   3.537   2.294
 1708  SOL  HW1 5265   2.993   3.470   2.291
 1708  SOL  HW2 5266   3.018   3.614   2.330
 1709  SOL   OW 5267   0.718   1.731   0.878
 1709  SOL  HW1 5268   0.695   1.776   0.797
 1709  SOL  HW2 5269   0.774   1.658   0.850
 1710  SOL   OW 5270   0.611   1.428   3.090
 1710  SOL  HW1 5271   0.572   1.401   3.173
 1710  SOL  HW2 5272   0.537   1.434   3.030
 1711  SOL   OW 5273   1.515   2.878   1.112
 1711  SOL  HW1 5274   1.554   2.822   1.045
 1711  SOL  HW2 5275   1.482   2.953   1.063
 1712  SOL   OW 5276   2.640   0.795   2.651
 1712  SOL  HW1 5277   2.600   0.782   2.565
 1712  SOL  HW2 5278   2.730   0.766   2.640
 1713  SOL   OW 5279   0.554   3.322   2.622
 1713  SOL  HW1 5280   0.509   3.405   2.636
 1713  SOL  HW2 5281   0.485   3.256   2.626
 1714  SOL   OW 5282   1.195   1.155   0.951
 1714  SOL  HW1 5283   1.175   1.152   1.044
 1714  SOL  HW2 5284   1.111   1.167   0.908
 1715  SOL   OW 5285   2.366   1.054   2.186
 1715  SOL  HW1 5286   2.397   0.965   2.199
 1715  SOL  HW2 5287   2.293   1.046   2.125
 1716  SOL   OW 5288   3.271   3.013   2.308
 1716  SOL  HW1 5289   3.324   3.087   2.280
 1716  SOL  HW2 5290   3.312   2.937   2.268
 1717  SOL   OW 5291   3.677   1.522   0.438
 1717  SOL  HW1 5292   3.588   1.497   0.414
 1717  SOL  HW2 5293   3.731   1.485   0.368
 1718  SOL   OW 5294   0.484   0.785   1.886
 1718  SOL  HW1 5295   0.449   0.801   1.798
 1718  SOL  HW2 5296   0.426   0.720   1.924
 1719  SOL   OW 5297   1.123   0.499   1.776
 1719  SOL  HW1 5298   1.153   0.503   1.867
 1719  SOL  HW2 5299   1.175   0.566   1.731
 1720  SOL   OW 5300   0.800   3.065   2.783
 1720  SOL  HW1 5301   0.828   3.016   2.860
 1720  SOL  HW2 5302   0.738   3.007   2.739
 1721  SOL   OW 5303   0.692   2.273   1.354
 1721  SOL  HW1 5304   0.701   2.233   1.440
 1721  SOL  HW2 5305   0.671   2.365   1.372
 1722  SOL   OW 5306   1.902   1.137   2.298
 1722  SOL  HW1 5307   1.868   1.193   2.368
 1722  SOL  HW2 5308   1.973   1.087   2.338
 1723  SOL   OW 5309   0.332   1.393   2.439
 1723  SOL  HW1 5310   0.240   1.403   2.413
 1723  SOL  HW2 5311   0.362   1.314   2.394
 1724  SOL   OW 5312   3.162   2.877   1.963
 1724  SOL  HW1 5313   3.111   2.843   1.889
 1724  SOL  HW2 5314   3.165   2.972   1.949
 1725  SOL   OW 5315   1.128   0.348   3.232
 1725  SOL  HW1 5316   1.106   0.256   3.216
 1725  SOL  HW2 5317   1.210   0.361   3.184
 1726  SOL   OW 5318   1.190   2.937   0.197
 1726  SOL  HW1 5319   1.235   2.887   0.129
 1726  SOL  HW2 5320   1.183   2.876   0.270
 1727  SOL   OW 5321   2.355   1.210   1.855
 1727  SOL  HW1 5322   2.282   1.159   1.888
 1727  SOL  HW2 5323   2.317   1.263   1.784
 1728  SOL   OW 5324   3.175   1.317   1.633
 1728  SOL  HW1 5325   3.190   1.241   1.577
 1728  SOL  HW2 5326   3.239   1.382   1.604
 1729  SOL   OW 5327   2.984   0.655   3.268
 1729  SOL  HW1 5328   2.919   0.634   3.336
 1729  SOL  HW2 5329   2.934   0.705   3.203
 1730  SOL   OW 5330   2.227   0.083   0.115
 1730  SOL  HW1 5331   2.163   0.135   0.164
 1730  SOL  HW2 5332   2.208  -0.007   0.138
 1731  SOL   OW 5333   2.976   0.657   1.591
 1731  SOL  HW1 5334   2.936   0.744   1.594
 1731  SOL  HW2 5335   2.918   0.603   1.645
 1732  SOL   OW 5336   0.722   0.405   3.008
 1732  SOL  HW1 5337   0.732   0.314   3.033
 1732  SOL  HW2 5338   0.706   0.402   2.913
 1733  SOL   OW 5339   2.797   2.862   3.583
 1733  SOL  HW1 5340   2.707   2.868   3.615
 1733  SOL  HW2 5341   2.787   2.859   3.488
 1734  SOL   OW 5342   2.767   3.294   3.631
 1734  SOL  HW1 5343   2.705   3.255   3.569
 1734  SOL  HW2 5344   2.725   3.283   3.717
 1735  SOL   OW 5345   0.794   2.541   3.532
 1735  SOL  HW1 5346   0.742   2.621   3.540
 1735  SOL  HW2 5347   0.776   2.493   3.613
 1736  SOL   OW 5348   0.488   2.482   1.002
 1736  SOL  HW1 5349   0.547   2.481   0.927
 1736  SOL  HW2 5350   0.492   2.393   1.038
 1737  SOL   OW 5351   1.802   1.060   2.595
 1737  SOL  HW1 5352   1.850   1.009   2.531
 1737  SOL  HW2 5353   1.738   0.999   2.632
 1738  SOL   OW 5354   0.539   0.009   0.013
 1738  SOL  HW1 5355   0.472   0.074  -0.009
 1738  SOL  HW2 5356   0.493  -0.057   0.065
 1739  SOL   OW 5357   2.220   3.437   3.249
 1739  SOL  HW1 5358   2.295   3.382   3.273
 1739  SOL  HW2 5359   2.237   3.520   3.294
 1740  SOL   OW 5360   1.699   0.267   3.134
 1740  SOL  HW1 5361   1.605   0.254   3.148
 1740  SOL  HW2 5362   1.704   0.338   3.070
 1741  SOL   OW 5363   1.795   2.839   1.773
 1741  SOL  HW1 5364   1.724   2.877   1.825
 1741  SOL  HW2 5365   1.850   2.914   1.750
 1742  SOL   OW 5366   3.664   2.953   0.938
 1742  SOL  HW1 5367   3.587   3.002   0.906
 1742  SOL  HW2 5368   3.706   3.012   1.000
 1743  SOL   OW 5369   1.474   2.298   3.521
 1743  SOL  HW1 5370   1.404   2.337   3.573
 1743  SOL  HW2 5371   1.431   2.232   3.468
 1744  SOL   OW 5372   3.664   3.333   0.956
 1744  SOL  HW1 5373   3.660   3.416   1.004
 1744  SOL  HW2 5374   3.605   3.275   1.002
 1745  SOL   OW 5375   3.092   0.387   2.795
 1745  SOL  HW1 5376   3.155   0.394   2.866
 1745  SOL  HW2 5377   3.063   0.296   2.798
 1746  SOL   OW 5378   3.203   0.952   2.186
 1746  SOL  HW1 5379   3.266   0.965   2.257
 1746  SOL  HW2 5380   3.214   1.029   2.130
 1747  SOL   OW 5381   1.290   1.874   2.054
 1747  SOL  HW1 5382   1.385   1.885   2.049
 1747  SOL  HW2 5383   1.278   1.783   2.080
 1748  SOL   OW 5384   1.276   1.621   2.095
 1748  SOL  HW1 5385   1.255   1.568   2.172
 1748  SOL  HW2 5386   1.324   1.562   2.037
 1749  SOL   OW 5387   3.473   1.840   1.003
 1749  SOL  HW1 5388   3.561   1.876   0.998
 1749  SOL  HW2 5389   3.420   1.912   1.038
 1750  SOL   OW 5390   1.282   1.621   0.570
 1750  SOL  HW1 5391   1.361   1.671   0.592
 1750  SOL  HW2 5392   1.312   1.531   0.561
 1751  SOL   OW 5393   1.422   2.750   2.387
 1751  SOL  HW1 5394   1.511   2.716   2.390
 1751  SOL  HW2 5395   1.374   2.685   2.336
 1752  SOL   OW 5396   1.028   2.062   1.509
 1752  SOL  HW1 5397   0.975   1.989   1.540
 1752  SOL  HW2 5398   1.051   2.039   1.419
 1753  SOL   OW 5399   3.703   1.012   0.384
 1753  SOL  HW1 5400   3.658   0.964   0.454
 1753  SOL  HW2 5401   3.647   0.998   0.307
 1754  SOL   OW 5402   2.301   2.310   3.455
 1754  SOL  HW1 5403   2.260   2.368   3.391
 1754  SOL  HW2 5404   2.228   2.278   3.508
 1755  SOL   OW 5405   1.594   2.173   3.260
 1755  SOL  HW1 5406   1.634   2.122   3.191
 1755  SOL  HW2 5407   1.536   2.234   3.215
 1756  SOL   OW 5408   0.482   3.136   1.030
 1756  SOL  HW1 5409   0.491   3.063   0.969
 1756  SOL  HW2 5410   0.420   3.106   1.096
 1757  SOL   OW 5411   2.876   0.933   1.629
 1757  SOL  HW1 5412   2.921   1.003   1.581
 1757  SOL  HW2 5413   2.789   0.970   1.648
 1758  SOL   OW 5414   0.409   0.355   2.027
 1758  SOL  HW1 5415   0.444   0.288   2.086
 1758  SOL  HW2 5416   0.483   0.380   1.973
 1759  SOL   OW 5417   2.731   0.976   0.875
 1759  SOL  HW1 5418   2.724   1.063   0.914
 1759  SOL  HW2 5419   2.689   0.918   0.938
 1760  SOL   OW 5420   1.037   0.241   2.968
 1760  SOL  HW1 5421   1.058   0.154   2.936
 1760  SOL  HW2 5422   0.973   0.276   2.905
 1761  SOL   OW 5423   1.132   2.958   2.563
 1761  SOL  HW1 5424   1.146   2.984   2.654
 1761  SOL  HW2 5425   1.060   2.895   2.566
 1762  SOL   OW 5426   1.958   3.685   3.138
 1762  SOL  HW1 5427   1.878   3.667   3.188
 1762  SOL  HW2 5428   1.986   3.599   3.105
 1763  SOL   OW 5429   3.493   2.827   1.674
 1763  SOL  HW1 5430   3.530   2.757   1.728
 1763  SOL  HW2 5431   3.560   2.845   1.608
 1764  SOL   OW 5432   1.062   1.346   2.805
 1764  SOL  HW1 5433   1.041   1.344   2.712
 1764  SOL  HW2 5434   1.045   1.257   2.836
 1765  SOL   OW 5435   1.703   3.263   2.133
 1765  SOL  HW1 5436   1.706   3.234   2.042
 1765  SOL  HW2 5437   1.653   3.344   2.131
 1766   NA   NA 5438   2.329   2.869   2.548
   3.72860   3.72860   3.72860
