;
;	File 'topol.top' was generated
;	By user: muralika.m (21947)
;	On host: zeus
;	At date: Wed Apr  9 23:57:16 2025
;
;	This is a standalone topology file
;
;	Created by:
;	                    :-) GROMACS - gmx pdb2gmx, 2019.6 (-:
;	
;	Executable:   /home/muralika.m/.conda/envs/muralika/bin/gmx_mpi
;	Data prefix:  /home/muralika.m/.conda/envs/muralika
;	Working dir:  /rg/mendels_prj/muralika.m/ub/New_mutns/YYAPETGTWY
;	Command line:
;	  gmx_mpi pdb2gmx -f YYAPETGTWY.pdb -o processed_structure.gro -p topol.top -asp -glu -ter
;	Force field was read from the standard GROMACS share directory.
;

; Include forcefield parameters
#include "charmm22star.ff/forcefield.itp"

[ moleculetype ]
; Name            nrexcl
Protein_chain_A     3

[ atoms ]
;   nr       type  resnr residue  atom   cgnr     charge       mass  typeB    chargeB      massB
; residue   0 TYR rtp TYR  q +1.0
     1        NH3      0    TYR      N      1       -0.3    14.0027
     2         HC      0    TYR     H1      2       0.33      1.008
     3         HC      0    TYR     H2      3       0.33      1.008
     4         HC      0    TYR     H3      4       0.33      1.008
     5        CT1      0    TYR     CA      5       0.21     12.011
     6         HB      0    TYR     HA      6        0.1      1.008
     7        CT2      0    TYR     CB      7      -0.18     12.011
     8         HA      0    TYR    HB1      8       0.09      1.008
     9         HA      0    TYR    HB2      9       0.09      1.008
    10         CA      0    TYR     CG     10          0     12.011
    11         CA      0    TYR    CD1     11     -0.115     12.011
    12         HP      0    TYR    HD1     12      0.115      1.008
    13         CA      0    TYR    CE1     13     -0.115     12.011
    14         HP      0    TYR    HE1     14      0.115      1.008
    15         CA      0    TYR     CZ     15       0.11     12.011
    16        OH1      0    TYR     OH     16      -0.54     15.999
    17          H      0    TYR     HH     17       0.43      1.008
    18         CA      0    TYR    CD2     18     -0.115     12.011
    19         HP      0    TYR    HD2     19      0.115      1.008
    20         CA      0    TYR    CE2     20     -0.115     12.011
    21         HP      0    TYR    HE2     21      0.115      1.008
    22          C      0    TYR      C     22       0.51     12.011
    23          O      0    TYR      O     23      -0.51     15.999   ; qtot 1
; residue   1 TYR rtp TYR  q  0.0
    24        NH1      1    TYR      N     24      -0.47     14.007
    25          H      1    TYR     HN     25       0.31      1.008
    26        CT1      1    TYR     CA     26       0.07     12.011
    27         HB      1    TYR     HA     27       0.09      1.008
    28        CT2      1    TYR     CB     28      -0.18     12.011
    29         HA      1    TYR    HB1     29       0.09      1.008
    30         HA      1    TYR    HB2     30       0.09      1.008
    31         CA      1    TYR     CG     31          0     12.011
    32         CA      1    TYR    CD1     32     -0.115     12.011
    33         HP      1    TYR    HD1     33      0.115      1.008
    34         CA      1    TYR    CE1     34     -0.115     12.011
    35         HP      1    TYR    HE1     35      0.115      1.008
    36         CA      1    TYR     CZ     36       0.11     12.011
    37        OH1      1    TYR     OH     37      -0.54     15.999
    38          H      1    TYR     HH     38       0.43      1.008
    39         CA      1    TYR    CD2     39     -0.115     12.011
    40         HP      1    TYR    HD2     40      0.115      1.008
    41         CA      1    TYR    CE2     41     -0.115     12.011
    42         HP      1    TYR    HE2     42      0.115      1.008
    43          C      1    TYR      C     43       0.51     12.011
    44          O      1    TYR      O     44      -0.51     15.999   ; qtot 1
; residue   2 ALA rtp ALA  q  0.0
    45        NH1      2    ALA      N     45      -0.47     14.007
    46          H      2    ALA     HN     46       0.31      1.008
    47        CT1      2    ALA     CA     47       0.07     12.011
    48         HB      2    ALA     HA     48       0.09      1.008
    49        CT3      2    ALA     CB     49      -0.27     12.011
    50         HA      2    ALA    HB1     50       0.09      1.008
    51         HA      2    ALA    HB2     51       0.09      1.008
    52         HA      2    ALA    HB3     52       0.09      1.008
    53          C      2    ALA      C     53       0.51     12.011
    54          O      2    ALA      O     54      -0.51     15.999   ; qtot 1
; residue   3 PRO rtp PRO  q  0.0
    55          N      3    PRO      N     55      -0.29     14.007
    56        CP3      3    PRO     CD     56          0     12.011
    57         HA      3    PRO    HD1     57       0.09      1.008
    58         HA      3    PRO    HD2     58       0.09      1.008
    59        CP1      3    PRO     CA     59       0.02     12.011
    60         HB      3    PRO     HA     60       0.09      1.008
    61        CP2      3    PRO     CB     61      -0.18     12.011
    62         HA      3    PRO    HB1     62       0.09      1.008
    63         HA      3    PRO    HB2     63       0.09      1.008
    64        CP2      3    PRO     CG     64      -0.18     12.011
    65         HA      3    PRO    HG1     65       0.09      1.008
    66         HA      3    PRO    HG2     66       0.09      1.008
    67          C      3    PRO      C     67       0.51     12.011
    68          O      3    PRO      O     68      -0.51     15.999   ; qtot 1
; residue   4 GLU rtp GLU  q -1.0
    69        NH1      4    GLU      N     69      -0.47     14.007
    70          H      4    GLU     HN     70       0.31      1.008
    71        CT1      4    GLU     CA     71       0.07     12.011
    72         HB      4    GLU     HA     72       0.09      1.008
    73        CT2      4    GLU     CB     73      -0.18     12.011
    74         HA      4    GLU    HB1     74       0.09      1.008
    75         HA      4    GLU    HB2     75       0.09      1.008
    76        CT2      4    GLU     CG     76      -0.28     12.011
    77         HA      4    GLU    HG1     77       0.05      1.008
    78         HA      4    GLU    HG2     78       0.05      1.008
    79         CC      4    GLU     CD     79       0.56     12.011
    80         OC      4    GLU    OE1     80      -0.69     15.999
    81         OC      4    GLU    OE2     81      -0.69     15.999
    82          C      4    GLU      C     82       0.51     12.011
    83          O      4    GLU      O     83      -0.51     15.999   ; qtot 0
; residue   5 THR rtp THR  q  0.0
    84        NH1      5    THR      N     84      -0.47     14.007
    85          H      5    THR     HN     85       0.31      1.008
    86        CT1      5    THR     CA     86       0.07     12.011
    87         HB      5    THR     HA     87       0.09      1.008
    88        CT1      5    THR     CB     88       0.14     12.011
    89         HA      5    THR     HB     89       0.09      1.008
    90        OH1      5    THR    OG1     90      -0.66     15.999
    91          H      5    THR    HG1     91       0.43      1.008
    92        CT3      5    THR    CG2     92      -0.27     12.011
    93         HA      5    THR   HG21     93       0.09      1.008
    94         HA      5    THR   HG22     94       0.09      1.008
    95         HA      5    THR   HG23     95       0.09      1.008
    96          C      5    THR      C     96       0.51     12.011
    97          O      5    THR      O     97      -0.51     15.999   ; qtot 0
; residue   6 GLY rtp GLY  q  0.0
    98        NH1      6    GLY      N     98      -0.47     14.007
    99          H      6    GLY     HN     99       0.31      1.008
   100        CT2      6    GLY     CA    100      -0.02     12.011
   101         HB      6    GLY    HA1    101       0.09      1.008
   102         HB      6    GLY    HA2    102       0.09      1.008
   103          C      6    GLY      C    103       0.51     12.011
   104          O      6    GLY      O    104      -0.51     15.999   ; qtot 0
; residue   7 THR rtp THR  q  0.0
   105        NH1      7    THR      N    105      -0.47     14.007
   106          H      7    THR     HN    106       0.31      1.008
   107        CT1      7    THR     CA    107       0.07     12.011
   108         HB      7    THR     HA    108       0.09      1.008
   109        CT1      7    THR     CB    109       0.14     12.011
   110         HA      7    THR     HB    110       0.09      1.008
   111        OH1      7    THR    OG1    111      -0.66     15.999
   112          H      7    THR    HG1    112       0.43      1.008
   113        CT3      7    THR    CG2    113      -0.27     12.011
   114         HA      7    THR   HG21    114       0.09      1.008
   115         HA      7    THR   HG22    115       0.09      1.008
   116         HA      7    THR   HG23    116       0.09      1.008
   117          C      7    THR      C    117       0.51     12.011
   118          O      7    THR      O    118      -0.51     15.999   ; qtot 0
; residue   8 TRP rtp TRP  q  0.0
   119        NH1      8    TRP      N    119      -0.47     14.007
   120          H      8    TRP     HN    120       0.31      1.008
   121        CT1      8    TRP     CA    121       0.07     12.011
   122         HB      8    TRP     HA    122       0.09      1.008
   123        CT2      8    TRP     CB    123      -0.18     12.011
   124         HA      8    TRP    HB1    124       0.09      1.008
   125         HA      8    TRP    HB2    125       0.09      1.008
   126         CY      8    TRP     CG    126      -0.03     12.011
   127         CA      8    TRP    CD1    127      0.035     12.011
   128         HP      8    TRP    HD1    128      0.115      1.008
   129         NY      8    TRP    NE1    129      -0.61     14.007
   130          H      8    TRP    HE1    130       0.38      1.008
   131        CPT      8    TRP    CE2    131       0.13     12.011
   132        CPT      8    TRP    CD2    132      -0.02     12.011
   133         CA      8    TRP    CE3    133     -0.115     12.011
   134         HP      8    TRP    HE3    134      0.115      1.008
   135         CA      8    TRP    CZ3    135     -0.115     12.011
   136         HP      8    TRP    HZ3    136      0.115      1.008
   137         CA      8    TRP    CZ2    137     -0.115     12.011
   138         HP      8    TRP    HZ2    138      0.115      1.008
   139         CA      8    TRP    CH2    139     -0.115     12.011
   140         HP      8    TRP    HH2    140      0.115      1.008
   141          C      8    TRP      C    141       0.51     12.011
   142          O      8    TRP      O    142      -0.51     15.999   ; qtot 0
; residue   9 TYR rtp TYR  q -1.0
   143        NH1      9    TYR      N    143      -0.47     14.007
   144          H      9    TYR     HN    144       0.31      1.008
   145        CT1      9    TYR     CA    145       0.07     12.011
   146         HB      9    TYR     HA    146       0.09      1.008
   147        CT2      9    TYR     CB    147      -0.18     12.011
   148         HA      9    TYR    HB1    148       0.09      1.008
   149         HA      9    TYR    HB2    149       0.09      1.008
   150         CA      9    TYR     CG    150          0     12.011
   151         CA      9    TYR    CD1    151     -0.115     12.011
   152         HP      9    TYR    HD1    152      0.115      1.008
   153         CA      9    TYR    CE1    153     -0.115     12.011
   154         HP      9    TYR    HE1    154      0.115      1.008
   155         CA      9    TYR     CZ    155       0.11     12.011
   156        OH1      9    TYR     OH    156      -0.54     15.999
   157          H      9    TYR     HH    157       0.43      1.008
   158         CA      9    TYR    CD2    158     -0.115     12.011
   159         HP      9    TYR    HD2    159      0.115      1.008
   160         CA      9    TYR    CE2    160     -0.115     12.011
   161         HP      9    TYR    HE2    161      0.115      1.008
   162         CC      9    TYR      C    162       0.34     12.011
   163         OC      9    TYR    OT1    163      -0.67    15.9994
   164         OC      9    TYR    OT2    164      -0.67    15.9994   ; qtot -1

[ bonds ]
;  ai    aj funct            c0            c1            c2            c3
    1     2     1 
    1     3     1 
    1     4     1 
    1     5     1 
    5     6     1 
    5     7     1 
    5    22     1 
    7     8     1 
    7     9     1 
    7    10     1 
   10    11     1 
   10    18     1 
   11    12     1 
   11    13     1 
   13    14     1 
   13    15     1 
   15    16     1 
   15    20     1 
   16    17     1 
   18    19     1 
   18    20     1 
   20    21     1 
   22    23     1 
   22    24     1 
   24    25     1 
   24    26     1 
   26    27     1 
   26    28     1 
   26    43     1 
   28    29     1 
   28    30     1 
   28    31     1 
   31    32     1 
   31    39     1 
   32    33     1 
   32    34     1 
   34    35     1 
   34    36     1 
   36    37     1 
   36    41     1 
   37    38     1 
   39    40     1 
   39    41     1 
   41    42     1 
   43    44     1 
   43    45     1 
   45    46     1 
   45    47     1 
   47    48     1 
   47    49     1 
   47    53     1 
   49    50     1 
   49    51     1 
   49    52     1 
   53    54     1 
   53    55     1 
   55    56     1 
   55    59     1 
   56    57     1 
   56    58     1 
   56    64     1 
   59    60     1 
   59    61     1 
   59    67     1 
   61    62     1 
   61    63     1 
   61    64     1 
   64    65     1 
   64    66     1 
   67    68     1 
   67    69     1 
   69    70     1 
   69    71     1 
   71    72     1 
   71    73     1 
   71    82     1 
   73    74     1 
   73    75     1 
   73    76     1 
   76    77     1 
   76    78     1 
   76    79     1 
   79    80     1 
   79    81     1 
   82    83     1 
   82    84     1 
   84    85     1 
   84    86     1 
   86    87     1 
   86    88     1 
   86    96     1 
   88    89     1 
   88    90     1 
   88    92     1 
   90    91     1 
   92    93     1 
   92    94     1 
   92    95     1 
   96    97     1 
   96    98     1 
   98    99     1 
   98   100     1 
  100   101     1 
  100   102     1 
  100   103     1 
  103   104     1 
  103   105     1 
  105   106     1 
  105   107     1 
  107   108     1 
  107   109     1 
  107   117     1 
  109   110     1 
  109   111     1 
  109   113     1 
  111   112     1 
  113   114     1 
  113   115     1 
  113   116     1 
  117   118     1 
  117   119     1 
  119   120     1 
  119   121     1 
  121   122     1 
  121   123     1 
  121   141     1 
  123   124     1 
  123   125     1 
  123   126     1 
  126   127     1 
  126   132     1 
  127   128     1 
  127   129     1 
  129   130     1 
  129   131     1 
  131   132     1 
  131   137     1 
  132   133     1 
  133   134     1 
  133   135     1 
  135   136     1 
  135   139     1 
  137   138     1 
  137   139     1 
  139   140     1 
  141   142     1 
  141   143     1 
  143   144     1 
  143   145     1 
  145   146     1 
  145   147     1 
  145   162     1 
  147   148     1 
  147   149     1 
  147   150     1 
  150   151     1 
  150   158     1 
  151   152     1 
  151   153     1 
  153   154     1 
  153   155     1 
  155   156     1 
  155   160     1 
  156   157     1 
  158   159     1 
  158   160     1 
  160   161     1 
  162   163     1 
  162   164     1 

[ pairs ]
;  ai    aj funct            c0            c1            c2            c3
    1     8     1 
    1     9     1 
    1    10     1 
    1    23     1 
    1    24     1 
    2     6     1 
    2     7     1 
    2    22     1 
    3     6     1 
    3     7     1 
    3    22     1 
    4     6     1 
    4     7     1 
    4    22     1 
    5    11     1 
    5    18     1 
    5    25     1 
    5    26     1 
    6     8     1 
    6     9     1 
    6    10     1 
    6    23     1 
    6    24     1 
    7    12     1 
    7    13     1 
    7    19     1 
    7    20     1 
    7    23     1 
    7    24     1 
    8    11     1 
    8    18     1 
    8    22     1 
    9    11     1 
    9    18     1 
    9    22     1 
   10    14     1 
   10    15     1 
   10    21     1 
   10    22     1 
   11    16     1 
   11    19     1 
   11    20     1 
   12    14     1 
   12    15     1 
   12    18     1 
   13    17     1 
   13    18     1 
   13    21     1 
   14    16     1 
   14    20     1 
   15    19     1 
   16    18     1 
   16    21     1 
   17    20     1 
   19    21     1 
   22    27     1 
   22    28     1 
   22    43     1 
   23    25     1 
   23    26     1 
   24    29     1 
   24    30     1 
   24    31     1 
   24    44     1 
   24    45     1 
   25    27     1 
   25    28     1 
   25    43     1 
   26    32     1 
   26    39     1 
   26    46     1 
   26    47     1 
   27    29     1 
   27    30     1 
   27    31     1 
   27    44     1 
   27    45     1 
   28    33     1 
   28    34     1 
   28    40     1 
   28    41     1 
   28    44     1 
   28    45     1 
   29    32     1 
   29    39     1 
   29    43     1 
   30    32     1 
   30    39     1 
   30    43     1 
   31    35     1 
   31    36     1 
   31    42     1 
   31    43     1 
   32    37     1 
   32    40     1 
   32    41     1 
   33    35     1 
   33    36     1 
   33    39     1 
   34    38     1 
   34    39     1 
   34    42     1 
   35    37     1 
   35    41     1 
   36    40     1 
   37    39     1 
   37    42     1 
   38    41     1 
   40    42     1 
   43    48     1 
   43    49     1 
   43    53     1 
   44    46     1 
   44    47     1 
   45    50     1 
   45    51     1 
   45    52     1 
   45    54     1 
   45    55     1 
   46    48     1 
   46    49     1 
   46    53     1 
   47    56     1 
   47    59     1 
   48    50     1 
   48    51     1 
   48    52     1 
   48    54     1 
   48    55     1 
   49    54     1 
   49    55     1 
   50    53     1 
   51    53     1 
   52    53     1 
   53    57     1 
   53    58     1 
   53    60     1 
   53    61     1 
   53    64     1 
   53    67     1 
   54    56     1 
   54    59     1 
   55    62     1 
   55    63     1 
   55    65     1 
   55    66     1 
   55    68     1 
   55    69     1 
   56    60     1 
   56    62     1 
   56    63     1 
   56    67     1 
   57    59     1 
   57    61     1 
   57    65     1 
   57    66     1 
   58    59     1 
   58    61     1 
   58    65     1 
   58    66     1 
   59    65     1 
   59    66     1 
   59    70     1 
   59    71     1 
   60    62     1 
   60    63     1 
   60    64     1 
   60    68     1 
   60    69     1 
   61    68     1 
   61    69     1 
   62    65     1 
   62    66     1 
   62    67     1 
   63    65     1 
   63    66     1 
   63    67     1 
   64    67     1 
   67    72     1 
   67    73     1 
   67    82     1 
   68    70     1 
   68    71     1 
   69    74     1 
   69    75     1 
   69    76     1 
   69    83     1 
   69    84     1 
   70    72     1 
   70    73     1 
   70    82     1 
   71    77     1 
   71    78     1 
   71    79     1 
   71    85     1 
   71    86     1 
   72    74     1 
   72    75     1 
   72    76     1 
   72    83     1 
   72    84     1 
   73    80     1 
   73    81     1 
   73    83     1 
   73    84     1 
   74    77     1 
   74    78     1 
   74    79     1 
   74    82     1 
   75    77     1 
   75    78     1 
   75    79     1 
   75    82     1 
   76    82     1 
   77    80     1 
   77    81     1 
   78    80     1 
   78    81     1 
   82    87     1 
   82    88     1 
   82    96     1 
   83    85     1 
   83    86     1 
   84    89     1 
   84    90     1 
   84    92     1 
   84    97     1 
   84    98     1 
   85    87     1 
   85    88     1 
   85    96     1 
   86    91     1 
   86    93     1 
   86    94     1 
   86    95     1 
   86    99     1 
   86   100     1 
   87    89     1 
   87    90     1 
   87    92     1 
   87    97     1 
   87    98     1 
   88    97     1 
   88    98     1 
   89    91     1 
   89    93     1 
   89    94     1 
   89    95     1 
   89    96     1 
   90    93     1 
   90    94     1 
   90    95     1 
   90    96     1 
   91    92     1 
   92    96     1 
   96   101     1 
   96   102     1 
   96   103     1 
   97    99     1 
   97   100     1 
   98   104     1 
   98   105     1 
   99   101     1 
   99   102     1 
   99   103     1 
  100   106     1 
  100   107     1 
  101   104     1 
  101   105     1 
  102   104     1 
  102   105     1 
  103   108     1 
  103   109     1 
  103   117     1 
  104   106     1 
  104   107     1 
  105   110     1 
  105   111     1 
  105   113     1 
  105   118     1 
  105   119     1 
  106   108     1 
  106   109     1 
  106   117     1 
  107   112     1 
  107   114     1 
  107   115     1 
  107   116     1 
  107   120     1 
  107   121     1 
  108   110     1 
  108   111     1 
  108   113     1 
  108   118     1 
  108   119     1 
  109   118     1 
  109   119     1 
  110   112     1 
  110   114     1 
  110   115     1 
  110   116     1 
  110   117     1 
  111   114     1 
  111   115     1 
  111   116     1 
  111   117     1 
  112   113     1 
  113   117     1 
  117   122     1 
  117   123     1 
  117   141     1 
  118   120     1 
  118   121     1 
  119   124     1 
  119   125     1 
  119   126     1 
  119   142     1 
  119   143     1 
  120   122     1 
  120   123     1 
  120   141     1 
  121   127     1 
  121   132     1 
  121   144     1 
  121   145     1 
  122   124     1 
  122   125     1 
  122   126     1 
  122   142     1 
  122   143     1 
  123   128     1 
  123   129     1 
  123   131     1 
  123   133     1 
  123   142     1 
  123   143     1 
  124   127     1 
  124   132     1 
  124   141     1 
  125   127     1 
  125   132     1 
  125   141     1 
  126   130     1 
  126   134     1 
  126   135     1 
  126   137     1 
  126   141     1 
  127   133     1 
  127   137     1 
  128   130     1 
  128   131     1 
  128   132     1 
  129   133     1 
  129   138     1 
  129   139     1 
  130   132     1 
  130   137     1 
  131   134     1 
  131   135     1 
  131   140     1 
  132   136     1 
  132   138     1 
  132   139     1 
  133   137     1 
  133   140     1 
  134   136     1 
  134   139     1 
  135   138     1 
  136   137     1 
  136   140     1 
  138   140     1 
  141   146     1 
  141   147     1 
  141   162     1 
  142   144     1 
  142   145     1 
  143   148     1 
  143   149     1 
  143   150     1 
  143   163     1 
  143   164     1 
  144   146     1 
  144   147     1 
  144   162     1 
  145   151     1 
  145   158     1 
  146   148     1 
  146   149     1 
  146   150     1 
  146   163     1 
  146   164     1 
  147   152     1 
  147   153     1 
  147   159     1 
  147   160     1 
  147   163     1 
  147   164     1 
  148   151     1 
  148   158     1 
  148   162     1 
  149   151     1 
  149   158     1 
  149   162     1 
  150   154     1 
  150   155     1 
  150   161     1 
  150   162     1 
  151   156     1 
  151   159     1 
  151   160     1 
  152   154     1 
  152   155     1 
  152   158     1 
  153   157     1 
  153   158     1 
  153   161     1 
  154   156     1 
  154   160     1 
  155   159     1 
  156   158     1 
  156   161     1 
  157   160     1 
  159   161     1 

[ angles ]
;  ai    aj    ak funct            c0            c1            c2            c3
    2     1     3     5 
    2     1     4     5 
    2     1     5     5 
    3     1     4     5 
    3     1     5     5 
    4     1     5     5 
    1     5     6     5 
    1     5     7     5 
    1     5    22     5 
    6     5     7     5 
    6     5    22     5 
    7     5    22     5 
    5     7     8     5 
    5     7     9     5 
    5     7    10     5 
    8     7     9     5 
    8     7    10     5 
    9     7    10     5 
    7    10    11     5 
    7    10    18     5 
   11    10    18     5 
   10    11    12     5 
   10    11    13     5 
   12    11    13     5 
   11    13    14     5 
   11    13    15     5 
   14    13    15     5 
   13    15    16     5 
   13    15    20     5 
   16    15    20     5 
   15    16    17     5 
   10    18    19     5 
   10    18    20     5 
   19    18    20     5 
   15    20    18     5 
   15    20    21     5 
   18    20    21     5 
    5    22    23     5 
    5    22    24     5 
   23    22    24     5 
   22    24    25     5 
   22    24    26     5 
   25    24    26     5 
   24    26    27     5 
   24    26    28     5 
   24    26    43     5 
   27    26    28     5 
   27    26    43     5 
   28    26    43     5 
   26    28    29     5 
   26    28    30     5 
   26    28    31     5 
   29    28    30     5 
   29    28    31     5 
   30    28    31     5 
   28    31    32     5 
   28    31    39     5 
   32    31    39     5 
   31    32    33     5 
   31    32    34     5 
   33    32    34     5 
   32    34    35     5 
   32    34    36     5 
   35    34    36     5 
   34    36    37     5 
   34    36    41     5 
   37    36    41     5 
   36    37    38     5 
   31    39    40     5 
   31    39    41     5 
   40    39    41     5 
   36    41    39     5 
   36    41    42     5 
   39    41    42     5 
   26    43    44     5 
   26    43    45     5 
   44    43    45     5 
   43    45    46     5 
   43    45    47     5 
   46    45    47     5 
   45    47    48     5 
   45    47    49     5 
   45    47    53     5 
   48    47    49     5 
   48    47    53     5 
   49    47    53     5 
   47    49    50     5 
   47    49    51     5 
   47    49    52     5 
   50    49    51     5 
   50    49    52     5 
   51    49    52     5 
   47    53    54     5 
   47    53    55     5 
   54    53    55     5 
   53    55    56     5 
   53    55    59     5 
   56    55    59     5 
   55    56    57     5 
   55    56    58     5 
   55    56    64     5 
   57    56    58     5 
   57    56    64     5 
   58    56    64     5 
   55    59    60     5 
   55    59    61     5 
   55    59    67     5 
   60    59    61     5 
   60    59    67     5 
   61    59    67     5 
   59    61    62     5 
   59    61    63     5 
   59    61    64     5 
   62    61    63     5 
   62    61    64     5 
   63    61    64     5 
   56    64    61     5 
   56    64    65     5 
   56    64    66     5 
   61    64    65     5 
   61    64    66     5 
   65    64    66     5 
   59    67    68     5 
   59    67    69     5 
   68    67    69     5 
   67    69    70     5 
   67    69    71     5 
   70    69    71     5 
   69    71    72     5 
   69    71    73     5 
   69    71    82     5 
   72    71    73     5 
   72    71    82     5 
   73    71    82     5 
   71    73    74     5 
   71    73    75     5 
   71    73    76     5 
   74    73    75     5 
   74    73    76     5 
   75    73    76     5 
   73    76    77     5 
   73    76    78     5 
   73    76    79     5 
   77    76    78     5 
   77    76    79     5 
   78    76    79     5 
   76    79    80     5 
   76    79    81     5 
   80    79    81     5 
   71    82    83     5 
   71    82    84     5 
   83    82    84     5 
   82    84    85     5 
   82    84    86     5 
   85    84    86     5 
   84    86    87     5 
   84    86    88     5 
   84    86    96     5 
   87    86    88     5 
   87    86    96     5 
   88    86    96     5 
   86    88    89     5 
   86    88    90     5 
   86    88    92     5 
   89    88    90     5 
   89    88    92     5 
   90    88    92     5 
   88    90    91     5 
   88    92    93     5 
   88    92    94     5 
   88    92    95     5 
   93    92    94     5 
   93    92    95     5 
   94    92    95     5 
   86    96    97     5 
   86    96    98     5 
   97    96    98     5 
   96    98    99     5 
   96    98   100     5 
   99    98   100     5 
   98   100   101     5 
   98   100   102     5 
   98   100   103     5 
  101   100   102     5 
  101   100   103     5 
  102   100   103     5 
  100   103   104     5 
  100   103   105     5 
  104   103   105     5 
  103   105   106     5 
  103   105   107     5 
  106   105   107     5 
  105   107   108     5 
  105   107   109     5 
  105   107   117     5 
  108   107   109     5 
  108   107   117     5 
  109   107   117     5 
  107   109   110     5 
  107   109   111     5 
  107   109   113     5 
  110   109   111     5 
  110   109   113     5 
  111   109   113     5 
  109   111   112     5 
  109   113   114     5 
  109   113   115     5 
  109   113   116     5 
  114   113   115     5 
  114   113   116     5 
  115   113   116     5 
  107   117   118     5 
  107   117   119     5 
  118   117   119     5 
  117   119   120     5 
  117   119   121     5 
  120   119   121     5 
  119   121   122     5 
  119   121   123     5 
  119   121   141     5 
  122   121   123     5 
  122   121   141     5 
  123   121   141     5 
  121   123   124     5 
  121   123   125     5 
  121   123   126     5 
  124   123   125     5 
  124   123   126     5 
  125   123   126     5 
  123   126   127     5 
  123   126   132     5 
  127   126   132     5 
  126   127   128     5 
  126   127   129     5 
  128   127   129     5 
  127   129   130     5 
  127   129   131     5 
  130   129   131     5 
  129   131   132     5 
  129   131   137     5 
  132   131   137     5 
  126   132   131     5 
  126   132   133     5 
  131   132   133     5 
  132   133   134     5 
  132   133   135     5 
  134   133   135     5 
  133   135   136     5 
  133   135   139     5 
  136   135   139     5 
  131   137   138     5 
  131   137   139     5 
  138   137   139     5 
  135   139   137     5 
  135   139   140     5 
  137   139   140     5 
  121   141   142     5 
  121   141   143     5 
  142   141   143     5 
  141   143   144     5 
  141   143   145     5 
  144   143   145     5 
  143   145   146     5 
  143   145   147     5 
  143   145   162     5 
  146   145   147     5 
  146   145   162     5 
  147   145   162     5 
  145   147   148     5 
  145   147   149     5 
  145   147   150     5 
  148   147   149     5 
  148   147   150     5 
  149   147   150     5 
  147   150   151     5 
  147   150   158     5 
  151   150   158     5 
  150   151   152     5 
  150   151   153     5 
  152   151   153     5 
  151   153   154     5 
  151   153   155     5 
  154   153   155     5 
  153   155   156     5 
  153   155   160     5 
  156   155   160     5 
  155   156   157     5 
  150   158   159     5 
  150   158   160     5 
  159   158   160     5 
  155   160   158     5 
  155   160   161     5 
  158   160   161     5 
  145   162   163     5 
  145   162   164     5 
  163   162   164     5 

[ dihedrals ]
;  ai    aj    ak    al funct            c0            c1            c2            c3            c4            c5
    2     1     5     6     9 
    2     1     5     7     9 
    2     1     5    22     9 
    3     1     5     6     9 
    3     1     5     7     9 
    3     1     5    22     9 
    4     1     5     6     9 
    4     1     5     7     9 
    4     1     5    22     9 
    1     5     7     8     9 
    1     5     7     9     9 
    1     5     7    10     9 
    6     5     7     8     9 
    6     5     7     9     9 
    6     5     7    10     9 
   22     5     7     8     9 
   22     5     7     9     9 
   22     5     7    10     9 
    1     5    22    23     9 
    1     5    22    24     9 
    6     5    22    23     9 
    6     5    22    24     9 
    7     5    22    23     9 
    7     5    22    24     9 
    5     7    10    11     9 
    5     7    10    18     9 
    8     7    10    11     9 
    8     7    10    18     9 
    9     7    10    11     9 
    9     7    10    18     9 
    7    10    11    12     9 
    7    10    11    13     9 
   18    10    11    12     9 
   18    10    11    13     9 
    7    10    18    19     9 
    7    10    18    20     9 
   11    10    18    19     9 
   11    10    18    20     9 
   10    11    13    14     9 
   10    11    13    15     9 
   12    11    13    14     9 
   12    11    13    15     9 
   11    13    15    16     9 
   11    13    15    20     9 
   14    13    15    16     9 
   14    13    15    20     9 
   13    15    16    17     9 
   20    15    16    17     9 
   13    15    20    18     9 
   13    15    20    21     9 
   16    15    20    18     9 
   16    15    20    21     9 
   10    18    20    15     9 
   10    18    20    21     9 
   19    18    20    15     9 
   19    18    20    21     9 
    5    22    24    25     9 
    5    22    24    26     9 
   23    22    24    25     9 
   23    22    24    26     9 
   22    24    26    27     9 
   22    24    26    28     9 
   22    24    26    43     9 
   25    24    26    27     9 
   25    24    26    28     9 
   25    24    26    43     9 
   24    26    28    29     9 
   24    26    28    30     9 
   24    26    28    31     9 
   27    26    28    29     9 
   27    26    28    30     9 
   27    26    28    31     9 
   43    26    28    29     9 
   43    26    28    30     9 
   43    26    28    31     9 
   24    26    43    44     9 
   24    26    43    45     9 
   27    26    43    44     9 
   27    26    43    45     9 
   28    26    43    44     9 
   28    26    43    45     9 
   26    28    31    32     9 
   26    28    31    39     9 
   29    28    31    32     9 
   29    28    31    39     9 
   30    28    31    32     9 
   30    28    31    39     9 
   28    31    32    33     9 
   28    31    32    34     9 
   39    31    32    33     9 
   39    31    32    34     9 
   28    31    39    40     9 
   28    31    39    41     9 
   32    31    39    40     9 
   32    31    39    41     9 
   31    32    34    35     9 
   31    32    34    36     9 
   33    32    34    35     9 
   33    32    34    36     9 
   32    34    36    37     9 
   32    34    36    41     9 
   35    34    36    37     9 
   35    34    36    41     9 
   34    36    37    38     9 
   41    36    37    38     9 
   34    36    41    39     9 
   34    36    41    42     9 
   37    36    41    39     9 
   37    36    41    42     9 
   31    39    41    36     9 
   31    39    41    42     9 
   40    39    41    36     9 
   40    39    41    42     9 
   26    43    45    46     9 
   26    43    45    47     9 
   44    43    45    46     9 
   44    43    45    47     9 
   43    45    47    48     9 
   43    45    47    49     9 
   43    45    47    53     9 
   46    45    47    48     9 
   46    45    47    49     9 
   46    45    47    53     9 
   45    47    49    50     9 
   45    47    49    51     9 
   45    47    49    52     9 
   48    47    49    50     9 
   48    47    49    51     9 
   48    47    49    52     9 
   53    47    49    50     9 
   53    47    49    51     9 
   53    47    49    52     9 
   45    47    53    54     9 
   45    47    53    55     9 
   48    47    53    54     9 
   48    47    53    55     9 
   49    47    53    54     9 
   49    47    53    55     9 
   47    53    55    56     9 
   47    53    55    59     9 
   54    53    55    56     9 
   54    53    55    59     9 
   53    55    56    57     9 
   53    55    56    58     9 
   53    55    56    64     9 
   59    55    56    57     9 
   59    55    56    58     9 
   59    55    56    64     9 
   53    55    59    60     9 
   53    55    59    61     9 
   53    55    59    67     9 
   56    55    59    60     9 
   56    55    59    61     9 
   56    55    59    67     9 
   55    56    64    61     9 
   55    56    64    65     9 
   55    56    64    66     9 
   57    56    64    61     9 
   57    56    64    65     9 
   57    56    64    66     9 
   58    56    64    61     9 
   58    56    64    65     9 
   58    56    64    66     9 
   55    59    61    62     9 
   55    59    61    63     9 
   55    59    61    64     9 
   60    59    61    62     9 
   60    59    61    63     9 
   60    59    61    64     9 
   67    59    61    62     9 
   67    59    61    63     9 
   67    59    61    64     9 
   55    59    67    68     9 
   55    59    67    69     9 
   60    59    67    68     9 
   60    59    67    69     9 
   61    59    67    68     9 
   61    59    67    69     9 
   59    61    64    56     9 
   59    61    64    65     9 
   59    61    64    66     9 
   62    61    64    56     9 
   62    61    64    65     9 
   62    61    64    66     9 
   63    61    64    56     9 
   63    61    64    65     9 
   63    61    64    66     9 
   59    67    69    70     9 
   59    67    69    71     9 
   68    67    69    70     9 
   68    67    69    71     9 
   67    69    71    72     9 
   67    69    71    73     9 
   67    69    71    82     9 
   70    69    71    72     9 
   70    69    71    73     9 
   70    69    71    82     9 
   69    71    73    74     9 
   69    71    73    75     9 
   69    71    73    76     9 
   72    71    73    74     9 
   72    71    73    75     9 
   72    71    73    76     9 
   82    71    73    74     9 
   82    71    73    75     9 
   82    71    73    76     9 
   69    71    82    83     9 
   69    71    82    84     9 
   72    71    82    83     9 
   72    71    82    84     9 
   73    71    82    83     9 
   73    71    82    84     9 
   71    73    76    77     9 
   71    73    76    78     9 
   71    73    76    79     9 
   74    73    76    77     9 
   74    73    76    78     9 
   74    73    76    79     9 
   75    73    76    77     9 
   75    73    76    78     9 
   75    73    76    79     9 
   73    76    79    80     9 
   73    76    79    81     9 
   77    76    79    80     9 
   77    76    79    81     9 
   78    76    79    80     9 
   78    76    79    81     9 
   71    82    84    85     9 
   71    82    84    86     9 
   83    82    84    85     9 
   83    82    84    86     9 
   82    84    86    87     9 
   82    84    86    88     9 
   82    84    86    96     9 
   85    84    86    87     9 
   85    84    86    88     9 
   85    84    86    96     9 
   84    86    88    89     9 
   84    86    88    90     9 
   84    86    88    92     9 
   87    86    88    89     9 
   87    86    88    90     9 
   87    86    88    92     9 
   96    86    88    89     9 
   96    86    88    90     9 
   96    86    88    92     9 
   84    86    96    97     9 
   84    86    96    98     9 
   87    86    96    97     9 
   87    86    96    98     9 
   88    86    96    97     9 
   88    86    96    98     9 
   86    88    90    91     9 
   89    88    90    91     9 
   92    88    90    91     9 
   86    88    92    93     9 
   86    88    92    94     9 
   86    88    92    95     9 
   89    88    92    93     9 
   89    88    92    94     9 
   89    88    92    95     9 
   90    88    92    93     9 
   90    88    92    94     9 
   90    88    92    95     9 
   86    96    98    99     9 
   86    96    98   100     9 
   97    96    98    99     9 
   97    96    98   100     9 
   96    98   100   101     9 
   96    98   100   102     9 
   96    98   100   103     9 
   99    98   100   101     9 
   99    98   100   102     9 
   99    98   100   103     9 
   98   100   103   104     9 
   98   100   103   105     9 
  101   100   103   104     9 
  101   100   103   105     9 
  102   100   103   104     9 
  102   100   103   105     9 
  100   103   105   106     9 
  100   103   105   107     9 
  104   103   105   106     9 
  104   103   105   107     9 
  103   105   107   108     9 
  103   105   107   109     9 
  103   105   107   117     9 
  106   105   107   108     9 
  106   105   107   109     9 
  106   105   107   117     9 
  105   107   109   110     9 
  105   107   109   111     9 
  105   107   109   113     9 
  108   107   109   110     9 
  108   107   109   111     9 
  108   107   109   113     9 
  117   107   109   110     9 
  117   107   109   111     9 
  117   107   109   113     9 
  105   107   117   118     9 
  105   107   117   119     9 
  108   107   117   118     9 
  108   107   117   119     9 
  109   107   117   118     9 
  109   107   117   119     9 
  107   109   111   112     9 
  110   109   111   112     9 
  113   109   111   112     9 
  107   109   113   114     9 
  107   109   113   115     9 
  107   109   113   116     9 
  110   109   113   114     9 
  110   109   113   115     9 
  110   109   113   116     9 
  111   109   113   114     9 
  111   109   113   115     9 
  111   109   113   116     9 
  107   117   119   120     9 
  107   117   119   121     9 
  118   117   119   120     9 
  118   117   119   121     9 
  117   119   121   122     9 
  117   119   121   123     9 
  117   119   121   141     9 
  120   119   121   122     9 
  120   119   121   123     9 
  120   119   121   141     9 
  119   121   123   124     9 
  119   121   123   125     9 
  119   121   123   126     9 
  122   121   123   124     9 
  122   121   123   125     9 
  122   121   123   126     9 
  141   121   123   124     9 
  141   121   123   125     9 
  141   121   123   126     9 
  119   121   141   142     9 
  119   121   141   143     9 
  122   121   141   142     9 
  122   121   141   143     9 
  123   121   141   142     9 
  123   121   141   143     9 
  121   123   126   127     9 
  121   123   126   132     9 
  124   123   126   127     9 
  124   123   126   132     9 
  125   123   126   127     9 
  125   123   126   132     9 
  123   126   127   128     9 
  123   126   127   129     9 
  132   126   127   128     9 
  132   126   127   129     9 
  123   126   132   131     9 
  123   126   132   133     9 
  127   126   132   131     9 
  127   126   132   133     9 
  126   127   129   130     9 
  126   127   129   131     9 
  128   127   129   130     9 
  128   127   129   131     9 
  127   129   131   132     9 
  127   129   131   137     9 
  130   129   131   132     9 
  130   129   131   137     9 
  129   131   132   126     9 
  129   131   132   133     9 
  137   131   132   126     9 
  137   131   132   133     9 
  129   131   137   138     9 
  129   131   137   139     9 
  132   131   137   138     9 
  132   131   137   139     9 
  126   132   133   134     9 
  126   132   133   135     9 
  131   132   133   134     9 
  131   132   133   135     9 
  132   133   135   136     9 
  132   133   135   139     9 
  134   133   135   136     9 
  134   133   135   139     9 
  133   135   139   137     9 
  133   135   139   140     9 
  136   135   139   137     9 
  136   135   139   140     9 
  131   137   139   135     9 
  131   137   139   140     9 
  138   137   139   135     9 
  138   137   139   140     9 
  121   141   143   144     9 
  121   141   143   145     9 
  142   141   143   144     9 
  142   141   143   145     9 
  141   143   145   146     9 
  141   143   145   147     9 
  141   143   145   162     9 
  144   143   145   146     9 
  144   143   145   147     9 
  144   143   145   162     9 
  143   145   147   148     9 
  143   145   147   149     9 
  143   145   147   150     9 
  146   145   147   148     9 
  146   145   147   149     9 
  146   145   147   150     9 
  162   145   147   148     9 
  162   145   147   149     9 
  162   145   147   150     9 
  143   145   162   163     9 
  143   145   162   164     9 
  146   145   162   163     9 
  146   145   162   164     9 
  147   145   162   163     9 
  147   145   162   164     9 
  145   147   150   151     9 
  145   147   150   158     9 
  148   147   150   151     9 
  148   147   150   158     9 
  149   147   150   151     9 
  149   147   150   158     9 
  147   150   151   152     9 
  147   150   151   153     9 
  158   150   151   152     9 
  158   150   151   153     9 
  147   150   158   159     9 
  147   150   158   160     9 
  151   150   158   159     9 
  151   150   158   160     9 
  150   151   153   154     9 
  150   151   153   155     9 
  152   151   153   154     9 
  152   151   153   155     9 
  151   153   155   156     9 
  151   153   155   160     9 
  154   153   155   156     9 
  154   153   155   160     9 
  153   155   156   157     9 
  160   155   156   157     9 
  153   155   160   158     9 
  153   155   160   161     9 
  156   155   160   158     9 
  156   155   160   161     9 
  150   158   160   155     9 
  150   158   160   161     9 
  159   158   160   155     9 
  159   158   160   161     9 

[ dihedrals ]
;  ai    aj    ak    al funct            c0            c1            c2            c3
   22     5    24    23     2 
   24    22    26    25     2 
   43    26    45    44     2 
   45    43    47    46     2 
   53    47    55    54     2 
   55    53    59    56     2 
   67    59    69    68     2 
   69    67    71    70     2 
   79    76    81    80     2 
   82    71    84    83     2 
   84    82    86    85     2 
   96    86    98    97     2 
   98    96   100    99     2 
  103   100   105   104     2 
  105   103   107   106     2 
  117   107   119   118     2 
  119   117   121   120     2 
  141   121   143   142     2 
  143   141   145   144     2 
  162   145   164   163     2 

[ cmap ]
;  ai    aj    ak    al    am funct
   53    55    59    67    69     1 
   96    98   100   103   105     1 

; Include Position restraint file
#ifdef POSRES
#include "posre.itp"
#endif

; Include water topology
#include "charmm22star.ff/tip3p.itp"

#ifdef POSRES_WATER
; Position restraint for each water oxygen
[ position_restraints ]
;  i funct       fcx        fcy        fcz
   1    1       1000       1000       1000
#endif

; Include topology for ions
#include "charmm22star.ff/ions.itp"

[ system ]
; Name
Protein in water

[ molecules ]
; Compound        #mols
Protein_chain_A     1
SOL         1760
NA               1
