;
;	File 'topol.top' was generated
;	By user: muralika.m (21947)
;	On host: zeus
;	At date: Mon Apr  7 13:43:00 2025
;
;	This is a standalone topology file
;
;	Created by:
;	                    :-) GROMACS - gmx pdb2gmx, 2019.6 (-:
;	
;	Executable:   /home/muralika.m/.conda/envs/muralika/bin/gmx_mpi
;	Data prefix:  /home/muralika.m/.conda/envs/muralika
;	Working dir:  /rg/mendels_prj/muralika.m/ub/New_mutns/YYEPETGTWY/ub_new
;	Command line:
;	  gmx_mpi pdb2gmx -f YYEPETGTWY.pdb -o processed_structure.gro -p topol.top -asp -glu -ter
;	Force field was read from the standard GROMACS share directory.
;

; Include forcefield parameters
#include "charmm22star.ff/forcefield.itp"

[ moleculetype ]
; Name            nrexcl
Protein_chain_A     3

[ atoms ]
;   nr       type  resnr residue  atom   cgnr     charge       mass  typeB    chargeB      massB
; residue   0 TYR rtp TYR  q +1.0
     1        NH3      0    TYR      N      1       -0.3    14.0027
     2         HC      0    TYR     H1      2       0.33      1.008
     3         HC      0    TYR     H2      3       0.33      1.008
     4         HC      0    TYR     H3      4       0.33      1.008
     5        CT1      0    TYR     CA      5       0.21     12.011
     6         HB      0    TYR     HA      6        0.1      1.008
     7        CT2      0    TYR     CB      7      -0.18     12.011
     8         HA      0    TYR    HB1      8       0.09      1.008
     9         HA      0    TYR    HB2      9       0.09      1.008
    10         CA      0    TYR     CG     10          0     12.011
    11         CA      0    TYR    CD1     11     -0.115     12.011
    12         HP      0    TYR    HD1     12      0.115      1.008
    13         CA      0    TYR    CE1     13     -0.115     12.011
    14         HP      0    TYR    HE1     14      0.115      1.008
    15         CA      0    TYR     CZ     15       0.11     12.011
    16        OH1      0    TYR     OH     16      -0.54     15.999
    17          H      0    TYR     HH     17       0.43      1.008
    18         CA      0    TYR    CD2     18     -0.115     12.011
    19         HP      0    TYR    HD2     19      0.115      1.008
    20         CA      0    TYR    CE2     20     -0.115     12.011
    21         HP      0    TYR    HE2     21      0.115      1.008
    22          C      0    TYR      C     22       0.51     12.011
    23          O      0    TYR      O     23      -0.51     15.999   ; qtot 1
; residue   1 TYR rtp TYR  q  0.0
    24        NH1      1    TYR      N     24      -0.47     14.007
    25          H      1    TYR     HN     25       0.31      1.008
    26        CT1      1    TYR     CA     26       0.07     12.011
    27         HB      1    TYR     HA     27       0.09      1.008
    28        CT2      1    TYR     CB     28      -0.18     12.011
    29         HA      1    TYR    HB1     29       0.09      1.008
    30         HA      1    TYR    HB2     30       0.09      1.008
    31         CA      1    TYR     CG     31          0     12.011
    32         CA      1    TYR    CD1     32     -0.115     12.011
    33         HP      1    TYR    HD1     33      0.115      1.008
    34         CA      1    TYR    CE1     34     -0.115     12.011
    35         HP      1    TYR    HE1     35      0.115      1.008
    36         CA      1    TYR     CZ     36       0.11     12.011
    37        OH1      1    TYR     OH     37      -0.54     15.999
    38          H      1    TYR     HH     38       0.43      1.008
    39         CA      1    TYR    CD2     39     -0.115     12.011
    40         HP      1    TYR    HD2     40      0.115      1.008
    41         CA      1    TYR    CE2     41     -0.115     12.011
    42         HP      1    TYR    HE2     42      0.115      1.008
    43          C      1    TYR      C     43       0.51     12.011
    44          O      1    TYR      O     44      -0.51     15.999   ; qtot 1
; residue   2 GLU rtp GLU  q -1.0
    45        NH1      2    GLU      N     45      -0.47     14.007
    46          H      2    GLU     HN     46       0.31      1.008
    47        CT1      2    GLU     CA     47       0.07     12.011
    48         HB      2    GLU     HA     48       0.09      1.008
    49        CT2      2    GLU     CB     49      -0.18     12.011
    50         HA      2    GLU    HB1     50       0.09      1.008
    51         HA      2    GLU    HB2     51       0.09      1.008
    52        CT2      2    GLU     CG     52      -0.28     12.011
    53         HA      2    GLU    HG1     53       0.05      1.008
    54         HA      2    GLU    HG2     54       0.05      1.008
    55         CC      2    GLU     CD     55       0.56     12.011
    56         OC      2    GLU    OE1     56      -0.69     15.999
    57         OC      2    GLU    OE2     57      -0.69     15.999
    58          C      2    GLU      C     58       0.51     12.011
    59          O      2    GLU      O     59      -0.51     15.999   ; qtot 0
; residue   3 PRO rtp PRO  q  0.0
    60          N      3    PRO      N     60      -0.29     14.007
    61        CP3      3    PRO     CD     61          0     12.011
    62         HA      3    PRO    HD1     62       0.09      1.008
    63         HA      3    PRO    HD2     63       0.09      1.008
    64        CP1      3    PRO     CA     64       0.02     12.011
    65         HB      3    PRO     HA     65       0.09      1.008
    66        CP2      3    PRO     CB     66      -0.18     12.011
    67         HA      3    PRO    HB1     67       0.09      1.008
    68         HA      3    PRO    HB2     68       0.09      1.008
    69        CP2      3    PRO     CG     69      -0.18     12.011
    70         HA      3    PRO    HG1     70       0.09      1.008
    71         HA      3    PRO    HG2     71       0.09      1.008
    72          C      3    PRO      C     72       0.51     12.011
    73          O      3    PRO      O     73      -0.51     15.999   ; qtot 0
; residue   4 GLU rtp GLU  q -1.0
    74        NH1      4    GLU      N     74      -0.47     14.007
    75          H      4    GLU     HN     75       0.31      1.008
    76        CT1      4    GLU     CA     76       0.07     12.011
    77         HB      4    GLU     HA     77       0.09      1.008
    78        CT2      4    GLU     CB     78      -0.18     12.011
    79         HA      4    GLU    HB1     79       0.09      1.008
    80         HA      4    GLU    HB2     80       0.09      1.008
    81        CT2      4    GLU     CG     81      -0.28     12.011
    82         HA      4    GLU    HG1     82       0.05      1.008
    83         HA      4    GLU    HG2     83       0.05      1.008
    84         CC      4    GLU     CD     84       0.56     12.011
    85         OC      4    GLU    OE1     85      -0.69     15.999
    86         OC      4    GLU    OE2     86      -0.69     15.999
    87          C      4    GLU      C     87       0.51     12.011
    88          O      4    GLU      O     88      -0.51     15.999   ; qtot -1
; residue   5 THR rtp THR  q  0.0
    89        NH1      5    THR      N     89      -0.47     14.007
    90          H      5    THR     HN     90       0.31      1.008
    91        CT1      5    THR     CA     91       0.07     12.011
    92         HB      5    THR     HA     92       0.09      1.008
    93        CT1      5    THR     CB     93       0.14     12.011
    94         HA      5    THR     HB     94       0.09      1.008
    95        OH1      5    THR    OG1     95      -0.66     15.999
    96          H      5    THR    HG1     96       0.43      1.008
    97        CT3      5    THR    CG2     97      -0.27     12.011
    98         HA      5    THR   HG21     98       0.09      1.008
    99         HA      5    THR   HG22     99       0.09      1.008
   100         HA      5    THR   HG23    100       0.09      1.008
   101          C      5    THR      C    101       0.51     12.011
   102          O      5    THR      O    102      -0.51     15.999   ; qtot -1
; residue   6 GLY rtp GLY  q  0.0
   103        NH1      6    GLY      N    103      -0.47     14.007
   104          H      6    GLY     HN    104       0.31      1.008
   105        CT2      6    GLY     CA    105      -0.02     12.011
   106         HB      6    GLY    HA1    106       0.09      1.008
   107         HB      6    GLY    HA2    107       0.09      1.008
   108          C      6    GLY      C    108       0.51     12.011
   109          O      6    GLY      O    109      -0.51     15.999   ; qtot -1
; residue   7 THR rtp THR  q  0.0
   110        NH1      7    THR      N    110      -0.47     14.007
   111          H      7    THR     HN    111       0.31      1.008
   112        CT1      7    THR     CA    112       0.07     12.011
   113         HB      7    THR     HA    113       0.09      1.008
   114        CT1      7    THR     CB    114       0.14     12.011
   115         HA      7    THR     HB    115       0.09      1.008
   116        OH1      7    THR    OG1    116      -0.66     15.999
   117          H      7    THR    HG1    117       0.43      1.008
   118        CT3      7    THR    CG2    118      -0.27     12.011
   119         HA      7    THR   HG21    119       0.09      1.008
   120         HA      7    THR   HG22    120       0.09      1.008
   121         HA      7    THR   HG23    121       0.09      1.008
   122          C      7    THR      C    122       0.51     12.011
   123          O      7    THR      O    123      -0.51     15.999   ; qtot -1
; residue   8 TRP rtp TRP  q  0.0
   124        NH1      8    TRP      N    124      -0.47     14.007
   125          H      8    TRP     HN    125       0.31      1.008
   126        CT1      8    TRP     CA    126       0.07     12.011
   127         HB      8    TRP     HA    127       0.09      1.008
   128        CT2      8    TRP     CB    128      -0.18     12.011
   129         HA      8    TRP    HB1    129       0.09      1.008
   130         HA      8    TRP    HB2    130       0.09      1.008
   131         CY      8    TRP     CG    131      -0.03     12.011
   132         CA      8    TRP    CD1    132      0.035     12.011
   133         HP      8    TRP    HD1    133      0.115      1.008
   134         NY      8    TRP    NE1    134      -0.61     14.007
   135          H      8    TRP    HE1    135       0.38      1.008
   136        CPT      8    TRP    CE2    136       0.13     12.011
   137        CPT      8    TRP    CD2    137      -0.02     12.011
   138         CA      8    TRP    CE3    138     -0.115     12.011
   139         HP      8    TRP    HE3    139      0.115      1.008
   140         CA      8    TRP    CZ3    140     -0.115     12.011
   141         HP      8    TRP    HZ3    141      0.115      1.008
   142         CA      8    TRP    CZ2    142     -0.115     12.011
   143         HP      8    TRP    HZ2    143      0.115      1.008
   144         CA      8    TRP    CH2    144     -0.115     12.011
   145         HP      8    TRP    HH2    145      0.115      1.008
   146          C      8    TRP      C    146       0.51     12.011
   147          O      8    TRP      O    147      -0.51     15.999   ; qtot -1
; residue   9 TYR rtp TYR  q -1.0
   148        NH1      9    TYR      N    148      -0.47     14.007
   149          H      9    TYR     HN    149       0.31      1.008
   150        CT1      9    TYR     CA    150       0.07     12.011
   151         HB      9    TYR     HA    151       0.09      1.008
   152        CT2      9    TYR     CB    152      -0.18     12.011
   153         HA      9    TYR    HB1    153       0.09      1.008
   154         HA      9    TYR    HB2    154       0.09      1.008
   155         CA      9    TYR     CG    155          0     12.011
   156         CA      9    TYR    CD1    156     -0.115     12.011
   157         HP      9    TYR    HD1    157      0.115      1.008
   158         CA      9    TYR    CE1    158     -0.115     12.011
   159         HP      9    TYR    HE1    159      0.115      1.008
   160         CA      9    TYR     CZ    160       0.11     12.011
   161        OH1      9    TYR     OH    161      -0.54     15.999
   162          H      9    TYR     HH    162       0.43      1.008
   163         CA      9    TYR    CD2    163     -0.115     12.011
   164         HP      9    TYR    HD2    164      0.115      1.008
   165         CA      9    TYR    CE2    165     -0.115     12.011
   166         HP      9    TYR    HE2    166      0.115      1.008
   167         CC      9    TYR      C    167       0.34     12.011
   168         OC      9    TYR    OT1    168      -0.67    15.9994
   169         OC      9    TYR    OT2    169      -0.67    15.9994   ; qtot -2

[ bonds ]
;  ai    aj funct            c0            c1            c2            c3
    1     2     1 
    1     3     1 
    1     4     1 
    1     5     1 
    5     6     1 
    5     7     1 
    5    22     1 
    7     8     1 
    7     9     1 
    7    10     1 
   10    11     1 
   10    18     1 
   11    12     1 
   11    13     1 
   13    14     1 
   13    15     1 
   15    16     1 
   15    20     1 
   16    17     1 
   18    19     1 
   18    20     1 
   20    21     1 
   22    23     1 
   22    24     1 
   24    25     1 
   24    26     1 
   26    27     1 
   26    28     1 
   26    43     1 
   28    29     1 
   28    30     1 
   28    31     1 
   31    32     1 
   31    39     1 
   32    33     1 
   32    34     1 
   34    35     1 
   34    36     1 
   36    37     1 
   36    41     1 
   37    38     1 
   39    40     1 
   39    41     1 
   41    42     1 
   43    44     1 
   43    45     1 
   45    46     1 
   45    47     1 
   47    48     1 
   47    49     1 
   47    58     1 
   49    50     1 
   49    51     1 
   49    52     1 
   52    53     1 
   52    54     1 
   52    55     1 
   55    56     1 
   55    57     1 
   58    59     1 
   58    60     1 
   60    61     1 
   60    64     1 
   61    62     1 
   61    63     1 
   61    69     1 
   64    65     1 
   64    66     1 
   64    72     1 
   66    67     1 
   66    68     1 
   66    69     1 
   69    70     1 
   69    71     1 
   72    73     1 
   72    74     1 
   74    75     1 
   74    76     1 
   76    77     1 
   76    78     1 
   76    87     1 
   78    79     1 
   78    80     1 
   78    81     1 
   81    82     1 
   81    83     1 
   81    84     1 
   84    85     1 
   84    86     1 
   87    88     1 
   87    89     1 
   89    90     1 
   89    91     1 
   91    92     1 
   91    93     1 
   91   101     1 
   93    94     1 
   93    95     1 
   93    97     1 
   95    96     1 
   97    98     1 
   97    99     1 
   97   100     1 
  101   102     1 
  101   103     1 
  103   104     1 
  103   105     1 
  105   106     1 
  105   107     1 
  105   108     1 
  108   109     1 
  108   110     1 
  110   111     1 
  110   112     1 
  112   113     1 
  112   114     1 
  112   122     1 
  114   115     1 
  114   116     1 
  114   118     1 
  116   117     1 
  118   119     1 
  118   120     1 
  118   121     1 
  122   123     1 
  122   124     1 
  124   125     1 
  124   126     1 
  126   127     1 
  126   128     1 
  126   146     1 
  128   129     1 
  128   130     1 
  128   131     1 
  131   132     1 
  131   137     1 
  132   133     1 
  132   134     1 
  134   135     1 
  134   136     1 
  136   137     1 
  136   142     1 
  137   138     1 
  138   139     1 
  138   140     1 
  140   141     1 
  140   144     1 
  142   143     1 
  142   144     1 
  144   145     1 
  146   147     1 
  146   148     1 
  148   149     1 
  148   150     1 
  150   151     1 
  150   152     1 
  150   167     1 
  152   153     1 
  152   154     1 
  152   155     1 
  155   156     1 
  155   163     1 
  156   157     1 
  156   158     1 
  158   159     1 
  158   160     1 
  160   161     1 
  160   165     1 
  161   162     1 
  163   164     1 
  163   165     1 
  165   166     1 
  167   168     1 
  167   169     1 

[ pairs ]
;  ai    aj funct            c0            c1            c2            c3
    1     8     1 
    1     9     1 
    1    10     1 
    1    23     1 
    1    24     1 
    2     6     1 
    2     7     1 
    2    22     1 
    3     6     1 
    3     7     1 
    3    22     1 
    4     6     1 
    4     7     1 
    4    22     1 
    5    11     1 
    5    18     1 
    5    25     1 
    5    26     1 
    6     8     1 
    6     9     1 
    6    10     1 
    6    23     1 
    6    24     1 
    7    12     1 
    7    13     1 
    7    19     1 
    7    20     1 
    7    23     1 
    7    24     1 
    8    11     1 
    8    18     1 
    8    22     1 
    9    11     1 
    9    18     1 
    9    22     1 
   10    14     1 
   10    15     1 
   10    21     1 
   10    22     1 
   11    16     1 
   11    19     1 
   11    20     1 
   12    14     1 
   12    15     1 
   12    18     1 
   13    17     1 
   13    18     1 
   13    21     1 
   14    16     1 
   14    20     1 
   15    19     1 
   16    18     1 
   16    21     1 
   17    20     1 
   19    21     1 
   22    27     1 
   22    28     1 
   22    43     1 
   23    25     1 
   23    26     1 
   24    29     1 
   24    30     1 
   24    31     1 
   24    44     1 
   24    45     1 
   25    27     1 
   25    28     1 
   25    43     1 
   26    32     1 
   26    39     1 
   26    46     1 
   26    47     1 
   27    29     1 
   27    30     1 
   27    31     1 
   27    44     1 
   27    45     1 
   28    33     1 
   28    34     1 
   28    40     1 
   28    41     1 
   28    44     1 
   28    45     1 
   29    32     1 
   29    39     1 
   29    43     1 
   30    32     1 
   30    39     1 
   30    43     1 
   31    35     1 
   31    36     1 
   31    42     1 
   31    43     1 
   32    37     1 
   32    40     1 
   32    41     1 
   33    35     1 
   33    36     1 
   33    39     1 
   34    38     1 
   34    39     1 
   34    42     1 
   35    37     1 
   35    41     1 
   36    40     1 
   37    39     1 
   37    42     1 
   38    41     1 
   40    42     1 
   43    48     1 
   43    49     1 
   43    58     1 
   44    46     1 
   44    47     1 
   45    50     1 
   45    51     1 
   45    52     1 
   45    59     1 
   45    60     1 
   46    48     1 
   46    49     1 
   46    58     1 
   47    53     1 
   47    54     1 
   47    55     1 
   47    61     1 
   47    64     1 
   48    50     1 
   48    51     1 
   48    52     1 
   48    59     1 
   48    60     1 
   49    56     1 
   49    57     1 
   49    59     1 
   49    60     1 
   50    53     1 
   50    54     1 
   50    55     1 
   50    58     1 
   51    53     1 
   51    54     1 
   51    55     1 
   51    58     1 
   52    58     1 
   53    56     1 
   53    57     1 
   54    56     1 
   54    57     1 
   58    62     1 
   58    63     1 
   58    65     1 
   58    66     1 
   58    69     1 
   58    72     1 
   59    61     1 
   59    64     1 
   60    67     1 
   60    68     1 
   60    70     1 
   60    71     1 
   60    73     1 
   60    74     1 
   61    65     1 
   61    67     1 
   61    68     1 
   61    72     1 
   62    64     1 
   62    66     1 
   62    70     1 
   62    71     1 
   63    64     1 
   63    66     1 
   63    70     1 
   63    71     1 
   64    70     1 
   64    71     1 
   64    75     1 
   64    76     1 
   65    67     1 
   65    68     1 
   65    69     1 
   65    73     1 
   65    74     1 
   66    73     1 
   66    74     1 
   67    70     1 
   67    71     1 
   67    72     1 
   68    70     1 
   68    71     1 
   68    72     1 
   69    72     1 
   72    77     1 
   72    78     1 
   72    87     1 
   73    75     1 
   73    76     1 
   74    79     1 
   74    80     1 
   74    81     1 
   74    88     1 
   74    89     1 
   75    77     1 
   75    78     1 
   75    87     1 
   76    82     1 
   76    83     1 
   76    84     1 
   76    90     1 
   76    91     1 
   77    79     1 
   77    80     1 
   77    81     1 
   77    88     1 
   77    89     1 
   78    85     1 
   78    86     1 
   78    88     1 
   78    89     1 
   79    82     1 
   79    83     1 
   79    84     1 
   79    87     1 
   80    82     1 
   80    83     1 
   80    84     1 
   80    87     1 
   81    87     1 
   82    85     1 
   82    86     1 
   83    85     1 
   83    86     1 
   87    92     1 
   87    93     1 
   87   101     1 
   88    90     1 
   88    91     1 
   89    94     1 
   89    95     1 
   89    97     1 
   89   102     1 
   89   103     1 
   90    92     1 
   90    93     1 
   90   101     1 
   91    96     1 
   91    98     1 
   91    99     1 
   91   100     1 
   91   104     1 
   91   105     1 
   92    94     1 
   92    95     1 
   92    97     1 
   92   102     1 
   92   103     1 
   93   102     1 
   93   103     1 
   94    96     1 
   94    98     1 
   94    99     1 
   94   100     1 
   94   101     1 
   95    98     1 
   95    99     1 
   95   100     1 
   95   101     1 
   96    97     1 
   97   101     1 
  101   106     1 
  101   107     1 
  101   108     1 
  102   104     1 
  102   105     1 
  103   109     1 
  103   110     1 
  104   106     1 
  104   107     1 
  104   108     1 
  105   111     1 
  105   112     1 
  106   109     1 
  106   110     1 
  107   109     1 
  107   110     1 
  108   113     1 
  108   114     1 
  108   122     1 
  109   111     1 
  109   112     1 
  110   115     1 
  110   116     1 
  110   118     1 
  110   123     1 
  110   124     1 
  111   113     1 
  111   114     1 
  111   122     1 
  112   117     1 
  112   119     1 
  112   120     1 
  112   121     1 
  112   125     1 
  112   126     1 
  113   115     1 
  113   116     1 
  113   118     1 
  113   123     1 
  113   124     1 
  114   123     1 
  114   124     1 
  115   117     1 
  115   119     1 
  115   120     1 
  115   121     1 
  115   122     1 
  116   119     1 
  116   120     1 
  116   121     1 
  116   122     1 
  117   118     1 
  118   122     1 
  122   127     1 
  122   128     1 
  122   146     1 
  123   125     1 
  123   126     1 
  124   129     1 
  124   130     1 
  124   131     1 
  124   147     1 
  124   148     1 
  125   127     1 
  125   128     1 
  125   146     1 
  126   132     1 
  126   137     1 
  126   149     1 
  126   150     1 
  127   129     1 
  127   130     1 
  127   131     1 
  127   147     1 
  127   148     1 
  128   133     1 
  128   134     1 
  128   136     1 
  128   138     1 
  128   147     1 
  128   148     1 
  129   132     1 
  129   137     1 
  129   146     1 
  130   132     1 
  130   137     1 
  130   146     1 
  131   135     1 
  131   139     1 
  131   140     1 
  131   142     1 
  131   146     1 
  132   138     1 
  132   142     1 
  133   135     1 
  133   136     1 
  133   137     1 
  134   138     1 
  134   143     1 
  134   144     1 
  135   137     1 
  135   142     1 
  136   139     1 
  136   140     1 
  136   145     1 
  137   141     1 
  137   143     1 
  137   144     1 
  138   142     1 
  138   145     1 
  139   141     1 
  139   144     1 
  140   143     1 
  141   142     1 
  141   145     1 
  143   145     1 
  146   151     1 
  146   152     1 
  146   167     1 
  147   149     1 
  147   150     1 
  148   153     1 
  148   154     1 
  148   155     1 
  148   168     1 
  148   169     1 
  149   151     1 
  149   152     1 
  149   167     1 
  150   156     1 
  150   163     1 
  151   153     1 
  151   154     1 
  151   155     1 
  151   168     1 
  151   169     1 
  152   157     1 
  152   158     1 
  152   164     1 
  152   165     1 
  152   168     1 
  152   169     1 
  153   156     1 
  153   163     1 
  153   167     1 
  154   156     1 
  154   163     1 
  154   167     1 
  155   159     1 
  155   160     1 
  155   166     1 
  155   167     1 
  156   161     1 
  156   164     1 
  156   165     1 
  157   159     1 
  157   160     1 
  157   163     1 
  158   162     1 
  158   163     1 
  158   166     1 
  159   161     1 
  159   165     1 
  160   164     1 
  161   163     1 
  161   166     1 
  162   165     1 
  164   166     1 

[ angles ]
;  ai    aj    ak funct            c0            c1            c2            c3
    2     1     3     5 
    2     1     4     5 
    2     1     5     5 
    3     1     4     5 
    3     1     5     5 
    4     1     5     5 
    1     5     6     5 
    1     5     7     5 
    1     5    22     5 
    6     5     7     5 
    6     5    22     5 
    7     5    22     5 
    5     7     8     5 
    5     7     9     5 
    5     7    10     5 
    8     7     9     5 
    8     7    10     5 
    9     7    10     5 
    7    10    11     5 
    7    10    18     5 
   11    10    18     5 
   10    11    12     5 
   10    11    13     5 
   12    11    13     5 
   11    13    14     5 
   11    13    15     5 
   14    13    15     5 
   13    15    16     5 
   13    15    20     5 
   16    15    20     5 
   15    16    17     5 
   10    18    19     5 
   10    18    20     5 
   19    18    20     5 
   15    20    18     5 
   15    20    21     5 
   18    20    21     5 
    5    22    23     5 
    5    22    24     5 
   23    22    24     5 
   22    24    25     5 
   22    24    26     5 
   25    24    26     5 
   24    26    27     5 
   24    26    28     5 
   24    26    43     5 
   27    26    28     5 
   27    26    43     5 
   28    26    43     5 
   26    28    29     5 
   26    28    30     5 
   26    28    31     5 
   29    28    30     5 
   29    28    31     5 
   30    28    31     5 
   28    31    32     5 
   28    31    39     5 
   32    31    39     5 
   31    32    33     5 
   31    32    34     5 
   33    32    34     5 
   32    34    35     5 
   32    34    36     5 
   35    34    36     5 
   34    36    37     5 
   34    36    41     5 
   37    36    41     5 
   36    37    38     5 
   31    39    40     5 
   31    39    41     5 
   40    39    41     5 
   36    41    39     5 
   36    41    42     5 
   39    41    42     5 
   26    43    44     5 
   26    43    45     5 
   44    43    45     5 
   43    45    46     5 
   43    45    47     5 
   46    45    47     5 
   45    47    48     5 
   45    47    49     5 
   45    47    58     5 
   48    47    49     5 
   48    47    58     5 
   49    47    58     5 
   47    49    50     5 
   47    49    51     5 
   47    49    52     5 
   50    49    51     5 
   50    49    52     5 
   51    49    52     5 
   49    52    53     5 
   49    52    54     5 
   49    52    55     5 
   53    52    54     5 
   53    52    55     5 
   54    52    55     5 
   52    55    56     5 
   52    55    57     5 
   56    55    57     5 
   47    58    59     5 
   47    58    60     5 
   59    58    60     5 
   58    60    61     5 
   58    60    64     5 
   61    60    64     5 
   60    61    62     5 
   60    61    63     5 
   60    61    69     5 
   62    61    63     5 
   62    61    69     5 
   63    61    69     5 
   60    64    65     5 
   60    64    66     5 
   60    64    72     5 
   65    64    66     5 
   65    64    72     5 
   66    64    72     5 
   64    66    67     5 
   64    66    68     5 
   64    66    69     5 
   67    66    68     5 
   67    66    69     5 
   68    66    69     5 
   61    69    66     5 
   61    69    70     5 
   61    69    71     5 
   66    69    70     5 
   66    69    71     5 
   70    69    71     5 
   64    72    73     5 
   64    72    74     5 
   73    72    74     5 
   72    74    75     5 
   72    74    76     5 
   75    74    76     5 
   74    76    77     5 
   74    76    78     5 
   74    76    87     5 
   77    76    78     5 
   77    76    87     5 
   78    76    87     5 
   76    78    79     5 
   76    78    80     5 
   76    78    81     5 
   79    78    80     5 
   79    78    81     5 
   80    78    81     5 
   78    81    82     5 
   78    81    83     5 
   78    81    84     5 
   82    81    83     5 
   82    81    84     5 
   83    81    84     5 
   81    84    85     5 
   81    84    86     5 
   85    84    86     5 
   76    87    88     5 
   76    87    89     5 
   88    87    89     5 
   87    89    90     5 
   87    89    91     5 
   90    89    91     5 
   89    91    92     5 
   89    91    93     5 
   89    91   101     5 
   92    91    93     5 
   92    91   101     5 
   93    91   101     5 
   91    93    94     5 
   91    93    95     5 
   91    93    97     5 
   94    93    95     5 
   94    93    97     5 
   95    93    97     5 
   93    95    96     5 
   93    97    98     5 
   93    97    99     5 
   93    97   100     5 
   98    97    99     5 
   98    97   100     5 
   99    97   100     5 
   91   101   102     5 
   91   101   103     5 
  102   101   103     5 
  101   103   104     5 
  101   103   105     5 
  104   103   105     5 
  103   105   106     5 
  103   105   107     5 
  103   105   108     5 
  106   105   107     5 
  106   105   108     5 
  107   105   108     5 
  105   108   109     5 
  105   108   110     5 
  109   108   110     5 
  108   110   111     5 
  108   110   112     5 
  111   110   112     5 
  110   112   113     5 
  110   112   114     5 
  110   112   122     5 
  113   112   114     5 
  113   112   122     5 
  114   112   122     5 
  112   114   115     5 
  112   114   116     5 
  112   114   118     5 
  115   114   116     5 
  115   114   118     5 
  116   114   118     5 
  114   116   117     5 
  114   118   119     5 
  114   118   120     5 
  114   118   121     5 
  119   118   120     5 
  119   118   121     5 
  120   118   121     5 
  112   122   123     5 
  112   122   124     5 
  123   122   124     5 
  122   124   125     5 
  122   124   126     5 
  125   124   126     5 
  124   126   127     5 
  124   126   128     5 
  124   126   146     5 
  127   126   128     5 
  127   126   146     5 
  128   126   146     5 
  126   128   129     5 
  126   128   130     5 
  126   128   131     5 
  129   128   130     5 
  129   128   131     5 
  130   128   131     5 
  128   131   132     5 
  128   131   137     5 
  132   131   137     5 
  131   132   133     5 
  131   132   134     5 
  133   132   134     5 
  132   134   135     5 
  132   134   136     5 
  135   134   136     5 
  134   136   137     5 
  134   136   142     5 
  137   136   142     5 
  131   137   136     5 
  131   137   138     5 
  136   137   138     5 
  137   138   139     5 
  137   138   140     5 
  139   138   140     5 
  138   140   141     5 
  138   140   144     5 
  141   140   144     5 
  136   142   143     5 
  136   142   144     5 
  143   142   144     5 
  140   144   142     5 
  140   144   145     5 
  142   144   145     5 
  126   146   147     5 
  126   146   148     5 
  147   146   148     5 
  146   148   149     5 
  146   148   150     5 
  149   148   150     5 
  148   150   151     5 
  148   150   152     5 
  148   150   167     5 
  151   150   152     5 
  151   150   167     5 
  152   150   167     5 
  150   152   153     5 
  150   152   154     5 
  150   152   155     5 
  153   152   154     5 
  153   152   155     5 
  154   152   155     5 
  152   155   156     5 
  152   155   163     5 
  156   155   163     5 
  155   156   157     5 
  155   156   158     5 
  157   156   158     5 
  156   158   159     5 
  156   158   160     5 
  159   158   160     5 
  158   160   161     5 
  158   160   165     5 
  161   160   165     5 
  160   161   162     5 
  155   163   164     5 
  155   163   165     5 
  164   163   165     5 
  160   165   163     5 
  160   165   166     5 
  163   165   166     5 
  150   167   168     5 
  150   167   169     5 
  168   167   169     5 

[ dihedrals ]
;  ai    aj    ak    al funct            c0            c1            c2            c3            c4            c5
    2     1     5     6     9 
    2     1     5     7     9 
    2     1     5    22     9 
    3     1     5     6     9 
    3     1     5     7     9 
    3     1     5    22     9 
    4     1     5     6     9 
    4     1     5     7     9 
    4     1     5    22     9 
    1     5     7     8     9 
    1     5     7     9     9 
    1     5     7    10     9 
    6     5     7     8     9 
    6     5     7     9     9 
    6     5     7    10     9 
   22     5     7     8     9 
   22     5     7     9     9 
   22     5     7    10     9 
    1     5    22    23     9 
    1     5    22    24     9 
    6     5    22    23     9 
    6     5    22    24     9 
    7     5    22    23     9 
    7     5    22    24     9 
    5     7    10    11     9 
    5     7    10    18     9 
    8     7    10    11     9 
    8     7    10    18     9 
    9     7    10    11     9 
    9     7    10    18     9 
    7    10    11    12     9 
    7    10    11    13     9 
   18    10    11    12     9 
   18    10    11    13     9 
    7    10    18    19     9 
    7    10    18    20     9 
   11    10    18    19     9 
   11    10    18    20     9 
   10    11    13    14     9 
   10    11    13    15     9 
   12    11    13    14     9 
   12    11    13    15     9 
   11    13    15    16     9 
   11    13    15    20     9 
   14    13    15    16     9 
   14    13    15    20     9 
   13    15    16    17     9 
   20    15    16    17     9 
   13    15    20    18     9 
   13    15    20    21     9 
   16    15    20    18     9 
   16    15    20    21     9 
   10    18    20    15     9 
   10    18    20    21     9 
   19    18    20    15     9 
   19    18    20    21     9 
    5    22    24    25     9 
    5    22    24    26     9 
   23    22    24    25     9 
   23    22    24    26     9 
   22    24    26    27     9 
   22    24    26    28     9 
   22    24    26    43     9 
   25    24    26    27     9 
   25    24    26    28     9 
   25    24    26    43     9 
   24    26    28    29     9 
   24    26    28    30     9 
   24    26    28    31     9 
   27    26    28    29     9 
   27    26    28    30     9 
   27    26    28    31     9 
   43    26    28    29     9 
   43    26    28    30     9 
   43    26    28    31     9 
   24    26    43    44     9 
   24    26    43    45     9 
   27    26    43    44     9 
   27    26    43    45     9 
   28    26    43    44     9 
   28    26    43    45     9 
   26    28    31    32     9 
   26    28    31    39     9 
   29    28    31    32     9 
   29    28    31    39     9 
   30    28    31    32     9 
   30    28    31    39     9 
   28    31    32    33     9 
   28    31    32    34     9 
   39    31    32    33     9 
   39    31    32    34     9 
   28    31    39    40     9 
   28    31    39    41     9 
   32    31    39    40     9 
   32    31    39    41     9 
   31    32    34    35     9 
   31    32    34    36     9 
   33    32    34    35     9 
   33    32    34    36     9 
   32    34    36    37     9 
   32    34    36    41     9 
   35    34    36    37     9 
   35    34    36    41     9 
   34    36    37    38     9 
   41    36    37    38     9 
   34    36    41    39     9 
   34    36    41    42     9 
   37    36    41    39     9 
   37    36    41    42     9 
   31    39    41    36     9 
   31    39    41    42     9 
   40    39    41    36     9 
   40    39    41    42     9 
   26    43    45    46     9 
   26    43    45    47     9 
   44    43    45    46     9 
   44    43    45    47     9 
   43    45    47    48     9 
   43    45    47    49     9 
   43    45    47    58     9 
   46    45    47    48     9 
   46    45    47    49     9 
   46    45    47    58     9 
   45    47    49    50     9 
   45    47    49    51     9 
   45    47    49    52     9 
   48    47    49    50     9 
   48    47    49    51     9 
   48    47    49    52     9 
   58    47    49    50     9 
   58    47    49    51     9 
   58    47    49    52     9 
   45    47    58    59     9 
   45    47    58    60     9 
   48    47    58    59     9 
   48    47    58    60     9 
   49    47    58    59     9 
   49    47    58    60     9 
   47    49    52    53     9 
   47    49    52    54     9 
   47    49    52    55     9 
   50    49    52    53     9 
   50    49    52    54     9 
   50    49    52    55     9 
   51    49    52    53     9 
   51    49    52    54     9 
   51    49    52    55     9 
   49    52    55    56     9 
   49    52    55    57     9 
   53    52    55    56     9 
   53    52    55    57     9 
   54    52    55    56     9 
   54    52    55    57     9 
   47    58    60    61     9 
   47    58    60    64     9 
   59    58    60    61     9 
   59    58    60    64     9 
   58    60    61    62     9 
   58    60    61    63     9 
   58    60    61    69     9 
   64    60    61    62     9 
   64    60    61    63     9 
   64    60    61    69     9 
   58    60    64    65     9 
   58    60    64    66     9 
   58    60    64    72     9 
   61    60    64    65     9 
   61    60    64    66     9 
   61    60    64    72     9 
   60    61    69    66     9 
   60    61    69    70     9 
   60    61    69    71     9 
   62    61    69    66     9 
   62    61    69    70     9 
   62    61    69    71     9 
   63    61    69    66     9 
   63    61    69    70     9 
   63    61    69    71     9 
   60    64    66    67     9 
   60    64    66    68     9 
   60    64    66    69     9 
   65    64    66    67     9 
   65    64    66    68     9 
   65    64    66    69     9 
   72    64    66    67     9 
   72    64    66    68     9 
   72    64    66    69     9 
   60    64    72    73     9 
   60    64    72    74     9 
   65    64    72    73     9 
   65    64    72    74     9 
   66    64    72    73     9 
   66    64    72    74     9 
   64    66    69    61     9 
   64    66    69    70     9 
   64    66    69    71     9 
   67    66    69    61     9 
   67    66    69    70     9 
   67    66    69    71     9 
   68    66    69    61     9 
   68    66    69    70     9 
   68    66    69    71     9 
   64    72    74    75     9 
   64    72    74    76     9 
   73    72    74    75     9 
   73    72    74    76     9 
   72    74    76    77     9 
   72    74    76    78     9 
   72    74    76    87     9 
   75    74    76    77     9 
   75    74    76    78     9 
   75    74    76    87     9 
   74    76    78    79     9 
   74    76    78    80     9 
   74    76    78    81     9 
   77    76    78    79     9 
   77    76    78    80     9 
   77    76    78    81     9 
   87    76    78    79     9 
   87    76    78    80     9 
   87    76    78    81     9 
   74    76    87    88     9 
   74    76    87    89     9 
   77    76    87    88     9 
   77    76    87    89     9 
   78    76    87    88     9 
   78    76    87    89     9 
   76    78    81    82     9 
   76    78    81    83     9 
   76    78    81    84     9 
   79    78    81    82     9 
   79    78    81    83     9 
   79    78    81    84     9 
   80    78    81    82     9 
   80    78    81    83     9 
   80    78    81    84     9 
   78    81    84    85     9 
   78    81    84    86     9 
   82    81    84    85     9 
   82    81    84    86     9 
   83    81    84    85     9 
   83    81    84    86     9 
   76    87    89    90     9 
   76    87    89    91     9 
   88    87    89    90     9 
   88    87    89    91     9 
   87    89    91    92     9 
   87    89    91    93     9 
   87    89    91   101     9 
   90    89    91    92     9 
   90    89    91    93     9 
   90    89    91   101     9 
   89    91    93    94     9 
   89    91    93    95     9 
   89    91    93    97     9 
   92    91    93    94     9 
   92    91    93    95     9 
   92    91    93    97     9 
  101    91    93    94     9 
  101    91    93    95     9 
  101    91    93    97     9 
   89    91   101   102     9 
   89    91   101   103     9 
   92    91   101   102     9 
   92    91   101   103     9 
   93    91   101   102     9 
   93    91   101   103     9 
   91    93    95    96     9 
   94    93    95    96     9 
   97    93    95    96     9 
   91    93    97    98     9 
   91    93    97    99     9 
   91    93    97   100     9 
   94    93    97    98     9 
   94    93    97    99     9 
   94    93    97   100     9 
   95    93    97    98     9 
   95    93    97    99     9 
   95    93    97   100     9 
   91   101   103   104     9 
   91   101   103   105     9 
  102   101   103   104     9 
  102   101   103   105     9 
  101   103   105   106     9 
  101   103   105   107     9 
  101   103   105   108     9 
  104   103   105   106     9 
  104   103   105   107     9 
  104   103   105   108     9 
  103   105   108   109     9 
  103   105   108   110     9 
  106   105   108   109     9 
  106   105   108   110     9 
  107   105   108   109     9 
  107   105   108   110     9 
  105   108   110   111     9 
  105   108   110   112     9 
  109   108   110   111     9 
  109   108   110   112     9 
  108   110   112   113     9 
  108   110   112   114     9 
  108   110   112   122     9 
  111   110   112   113     9 
  111   110   112   114     9 
  111   110   112   122     9 
  110   112   114   115     9 
  110   112   114   116     9 
  110   112   114   118     9 
  113   112   114   115     9 
  113   112   114   116     9 
  113   112   114   118     9 
  122   112   114   115     9 
  122   112   114   116     9 
  122   112   114   118     9 
  110   112   122   123     9 
  110   112   122   124     9 
  113   112   122   123     9 
  113   112   122   124     9 
  114   112   122   123     9 
  114   112   122   124     9 
  112   114   116   117     9 
  115   114   116   117     9 
  118   114   116   117     9 
  112   114   118   119     9 
  112   114   118   120     9 
  112   114   118   121     9 
  115   114   118   119     9 
  115   114   118   120     9 
  115   114   118   121     9 
  116   114   118   119     9 
  116   114   118   120     9 
  116   114   118   121     9 
  112   122   124   125     9 
  112   122   124   126     9 
  123   122   124   125     9 
  123   122   124   126     9 
  122   124   126   127     9 
  122   124   126   128     9 
  122   124   126   146     9 
  125   124   126   127     9 
  125   124   126   128     9 
  125   124   126   146     9 
  124   126   128   129     9 
  124   126   128   130     9 
  124   126   128   131     9 
  127   126   128   129     9 
  127   126   128   130     9 
  127   126   128   131     9 
  146   126   128   129     9 
  146   126   128   130     9 
  146   126   128   131     9 
  124   126   146   147     9 
  124   126   146   148     9 
  127   126   146   147     9 
  127   126   146   148     9 
  128   126   146   147     9 
  128   126   146   148     9 
  126   128   131   132     9 
  126   128   131   137     9 
  129   128   131   132     9 
  129   128   131   137     9 
  130   128   131   132     9 
  130   128   131   137     9 
  128   131   132   133     9 
  128   131   132   134     9 
  137   131   132   133     9 
  137   131   132   134     9 
  128   131   137   136     9 
  128   131   137   138     9 
  132   131   137   136     9 
  132   131   137   138     9 
  131   132   134   135     9 
  131   132   134   136     9 
  133   132   134   135     9 
  133   132   134   136     9 
  132   134   136   137     9 
  132   134   136   142     9 
  135   134   136   137     9 
  135   134   136   142     9 
  134   136   137   131     9 
  134   136   137   138     9 
  142   136   137   131     9 
  142   136   137   138     9 
  134   136   142   143     9 
  134   136   142   144     9 
  137   136   142   143     9 
  137   136   142   144     9 
  131   137   138   139     9 
  131   137   138   140     9 
  136   137   138   139     9 
  136   137   138   140     9 
  137   138   140   141     9 
  137   138   140   144     9 
  139   138   140   141     9 
  139   138   140   144     9 
  138   140   144   142     9 
  138   140   144   145     9 
  141   140   144   142     9 
  141   140   144   145     9 
  136   142   144   140     9 
  136   142   144   145     9 
  143   142   144   140     9 
  143   142   144   145     9 
  126   146   148   149     9 
  126   146   148   150     9 
  147   146   148   149     9 
  147   146   148   150     9 
  146   148   150   151     9 
  146   148   150   152     9 
  146   148   150   167     9 
  149   148   150   151     9 
  149   148   150   152     9 
  149   148   150   167     9 
  148   150   152   153     9 
  148   150   152   154     9 
  148   150   152   155     9 
  151   150   152   153     9 
  151   150   152   154     9 
  151   150   152   155     9 
  167   150   152   153     9 
  167   150   152   154     9 
  167   150   152   155     9 
  148   150   167   168     9 
  148   150   167   169     9 
  151   150   167   168     9 
  151   150   167   169     9 
  152   150   167   168     9 
  152   150   167   169     9 
  150   152   155   156     9 
  150   152   155   163     9 
  153   152   155   156     9 
  153   152   155   163     9 
  154   152   155   156     9 
  154   152   155   163     9 
  152   155   156   157     9 
  152   155   156   158     9 
  163   155   156   157     9 
  163   155   156   158     9 
  152   155   163   164     9 
  152   155   163   165     9 
  156   155   163   164     9 
  156   155   163   165     9 
  155   156   158   159     9 
  155   156   158   160     9 
  157   156   158   159     9 
  157   156   158   160     9 
  156   158   160   161     9 
  156   158   160   165     9 
  159   158   160   161     9 
  159   158   160   165     9 
  158   160   161   162     9 
  165   160   161   162     9 
  158   160   165   163     9 
  158   160   165   166     9 
  161   160   165   163     9 
  161   160   165   166     9 
  155   163   165   160     9 
  155   163   165   166     9 
  164   163   165   160     9 
  164   163   165   166     9 

[ dihedrals ]
;  ai    aj    ak    al funct            c0            c1            c2            c3
   22     5    24    23     2 
   24    22    26    25     2 
   43    26    45    44     2 
   45    43    47    46     2 
   55    52    57    56     2 
   58    47    60    59     2 
   60    58    64    61     2 
   72    64    74    73     2 
   74    72    76    75     2 
   84    81    86    85     2 
   87    76    89    88     2 
   89    87    91    90     2 
  101    91   103   102     2 
  103   101   105   104     2 
  108   105   110   109     2 
  110   108   112   111     2 
  122   112   124   123     2 
  124   122   126   125     2 
  146   126   148   147     2 
  148   146   150   149     2 
  167   150   169   168     2 

[ cmap ]
;  ai    aj    ak    al    am funct
   58    60    64    72    74     1 
  101   103   105   108   110     1 

; Include Position restraint file
#ifdef POSRES
#include "posre.itp"
#endif

; Include water topology
#include "charmm22star.ff/tip3p.itp"

#ifdef POSRES_WATER
; Position restraint for each water oxygen
[ position_restraints ]
;  i funct       fcx        fcy        fcz
   1    1       1000       1000       1000
#endif

; Include topology for ions
#include "charmm22star.ff/ions.itp"

[ system ]
; Name
Protein in water

[ molecules ]
; Compound        #mols
Protein_chain_A     1
SOL         1757
NA               2
