;
;	File 'topol.top' was generated
;	By user: muralika.m (21947)
;	On host: zeus
;	At date: Mon Apr 14 20:19:35 2025
;
;	This is a standalone topology file
;
;	Created by:
;	                    :-) GROMACS - gmx pdb2gmx, 2019.6 (-:
;	
;	Executable:   /home/muralika.m/.conda/envs/muralika/bin/gmx_mpi
;	Data prefix:  /home/muralika.m/.conda/envs/muralika
;	Working dir:  /rg/mendels_prj/muralika.m/ub/New_mutns/YYKPETGTWY
;	Command line:
;	  gmx_mpi pdb2gmx -f YYKPETGTWY.pdb -o processed_structure.gro -p topol.top -asp -glu -ter
;	Force field was read from the standard GROMACS share directory.
;

; Include forcefield parameters
#include "charmm22star.ff/forcefield.itp"

[ moleculetype ]
; Name            nrexcl
Protein_chain_A     3

[ atoms ]
;   nr       type  resnr residue  atom   cgnr     charge       mass  typeB    chargeB      massB
; residue   0 TYR rtp TYR  q +1.0
     1        NH3      0    TYR      N      1       -0.3    14.0027
     2         HC      0    TYR     H1      2       0.33      1.008
     3         HC      0    TYR     H2      3       0.33      1.008
     4         HC      0    TYR     H3      4       0.33      1.008
     5        CT1      0    TYR     CA      5       0.21     12.011
     6         HB      0    TYR     HA      6        0.1      1.008
     7        CT2      0    TYR     CB      7      -0.18     12.011
     8         HA      0    TYR    HB1      8       0.09      1.008
     9         HA      0    TYR    HB2      9       0.09      1.008
    10         CA      0    TYR     CG     10          0     12.011
    11         CA      0    TYR    CD1     11     -0.115     12.011
    12         HP      0    TYR    HD1     12      0.115      1.008
    13         CA      0    TYR    CE1     13     -0.115     12.011
    14         HP      0    TYR    HE1     14      0.115      1.008
    15         CA      0    TYR     CZ     15       0.11     12.011
    16        OH1      0    TYR     OH     16      -0.54     15.999
    17          H      0    TYR     HH     17       0.43      1.008
    18         CA      0    TYR    CD2     18     -0.115     12.011
    19         HP      0    TYR    HD2     19      0.115      1.008
    20         CA      0    TYR    CE2     20     -0.115     12.011
    21         HP      0    TYR    HE2     21      0.115      1.008
    22          C      0    TYR      C     22       0.51     12.011
    23          O      0    TYR      O     23      -0.51     15.999   ; qtot 1
; residue   1 TYR rtp TYR  q  0.0
    24        NH1      1    TYR      N     24      -0.47     14.007
    25          H      1    TYR     HN     25       0.31      1.008
    26        CT1      1    TYR     CA     26       0.07     12.011
    27         HB      1    TYR     HA     27       0.09      1.008
    28        CT2      1    TYR     CB     28      -0.18     12.011
    29         HA      1    TYR    HB1     29       0.09      1.008
    30         HA      1    TYR    HB2     30       0.09      1.008
    31         CA      1    TYR     CG     31          0     12.011
    32         CA      1    TYR    CD1     32     -0.115     12.011
    33         HP      1    TYR    HD1     33      0.115      1.008
    34         CA      1    TYR    CE1     34     -0.115     12.011
    35         HP      1    TYR    HE1     35      0.115      1.008
    36         CA      1    TYR     CZ     36       0.11     12.011
    37        OH1      1    TYR     OH     37      -0.54     15.999
    38          H      1    TYR     HH     38       0.43      1.008
    39         CA      1    TYR    CD2     39     -0.115     12.011
    40         HP      1    TYR    HD2     40      0.115      1.008
    41         CA      1    TYR    CE2     41     -0.115     12.011
    42         HP      1    TYR    HE2     42      0.115      1.008
    43          C      1    TYR      C     43       0.51     12.011
    44          O      1    TYR      O     44      -0.51     15.999   ; qtot 1
; residue   2 LYS rtp LYS  q +1.0
    45        NH1      2    LYS      N     45      -0.47     14.007
    46          H      2    LYS     HN     46       0.31      1.008
    47        CT1      2    LYS     CA     47       0.07     12.011
    48         HB      2    LYS     HA     48       0.09      1.008
    49        CT2      2    LYS     CB     49      -0.18     12.011
    50         HA      2    LYS    HB1     50       0.09      1.008
    51         HA      2    LYS    HB2     51       0.09      1.008
    52        CT2      2    LYS     CG     52      -0.18     12.011
    53         HA      2    LYS    HG1     53       0.09      1.008
    54         HA      2    LYS    HG2     54       0.09      1.008
    55        CT2      2    LYS     CD     55      -0.18     12.011
    56         HA      2    LYS    HD1     56       0.09      1.008
    57         HA      2    LYS    HD2     57       0.09      1.008
    58        CT2      2    LYS     CE     58       0.21     12.011
    59         HA      2    LYS    HE1     59       0.05      1.008
    60         HA      2    LYS    HE2     60       0.05      1.008
    61        NH3      2    LYS     NZ     61       -0.3     14.007
    62         HC      2    LYS    HZ1     62       0.33      1.008
    63         HC      2    LYS    HZ2     63       0.33      1.008
    64         HC      2    LYS    HZ3     64       0.33      1.008
    65          C      2    LYS      C     65       0.51     12.011
    66          O      2    LYS      O     66      -0.51     15.999   ; qtot 2
; residue   3 PRO rtp PRO  q  0.0
    67          N      3    PRO      N     67      -0.29     14.007
    68        CP3      3    PRO     CD     68          0     12.011
    69         HA      3    PRO    HD1     69       0.09      1.008
    70         HA      3    PRO    HD2     70       0.09      1.008
    71        CP1      3    PRO     CA     71       0.02     12.011
    72         HB      3    PRO     HA     72       0.09      1.008
    73        CP2      3    PRO     CB     73      -0.18     12.011
    74         HA      3    PRO    HB1     74       0.09      1.008
    75         HA      3    PRO    HB2     75       0.09      1.008
    76        CP2      3    PRO     CG     76      -0.18     12.011
    77         HA      3    PRO    HG1     77       0.09      1.008
    78         HA      3    PRO    HG2     78       0.09      1.008
    79          C      3    PRO      C     79       0.51     12.011
    80          O      3    PRO      O     80      -0.51     15.999   ; qtot 2
; residue   4 GLU rtp GLU  q -1.0
    81        NH1      4    GLU      N     81      -0.47     14.007
    82          H      4    GLU     HN     82       0.31      1.008
    83        CT1      4    GLU     CA     83       0.07     12.011
    84         HB      4    GLU     HA     84       0.09      1.008
    85        CT2      4    GLU     CB     85      -0.18     12.011
    86         HA      4    GLU    HB1     86       0.09      1.008
    87         HA      4    GLU    HB2     87       0.09      1.008
    88        CT2      4    GLU     CG     88      -0.28     12.011
    89         HA      4    GLU    HG1     89       0.05      1.008
    90         HA      4    GLU    HG2     90       0.05      1.008
    91         CC      4    GLU     CD     91       0.56     12.011
    92         OC      4    GLU    OE1     92      -0.69     15.999
    93         OC      4    GLU    OE2     93      -0.69     15.999
    94          C      4    GLU      C     94       0.51     12.011
    95          O      4    GLU      O     95      -0.51     15.999   ; qtot 1
; residue   5 THR rtp THR  q  0.0
    96        NH1      5    THR      N     96      -0.47     14.007
    97          H      5    THR     HN     97       0.31      1.008
    98        CT1      5    THR     CA     98       0.07     12.011
    99         HB      5    THR     HA     99       0.09      1.008
   100        CT1      5    THR     CB    100       0.14     12.011
   101         HA      5    THR     HB    101       0.09      1.008
   102        OH1      5    THR    OG1    102      -0.66     15.999
   103          H      5    THR    HG1    103       0.43      1.008
   104        CT3      5    THR    CG2    104      -0.27     12.011
   105         HA      5    THR   HG21    105       0.09      1.008
   106         HA      5    THR   HG22    106       0.09      1.008
   107         HA      5    THR   HG23    107       0.09      1.008
   108          C      5    THR      C    108       0.51     12.011
   109          O      5    THR      O    109      -0.51     15.999   ; qtot 1
; residue   6 GLY rtp GLY  q  0.0
   110        NH1      6    GLY      N    110      -0.47     14.007
   111          H      6    GLY     HN    111       0.31      1.008
   112        CT2      6    GLY     CA    112      -0.02     12.011
   113         HB      6    GLY    HA1    113       0.09      1.008
   114         HB      6    GLY    HA2    114       0.09      1.008
   115          C      6    GLY      C    115       0.51     12.011
   116          O      6    GLY      O    116      -0.51     15.999   ; qtot 1
; residue   7 THR rtp THR  q  0.0
   117        NH1      7    THR      N    117      -0.47     14.007
   118          H      7    THR     HN    118       0.31      1.008
   119        CT1      7    THR     CA    119       0.07     12.011
   120         HB      7    THR     HA    120       0.09      1.008
   121        CT1      7    THR     CB    121       0.14     12.011
   122         HA      7    THR     HB    122       0.09      1.008
   123        OH1      7    THR    OG1    123      -0.66     15.999
   124          H      7    THR    HG1    124       0.43      1.008
   125        CT3      7    THR    CG2    125      -0.27     12.011
   126         HA      7    THR   HG21    126       0.09      1.008
   127         HA      7    THR   HG22    127       0.09      1.008
   128         HA      7    THR   HG23    128       0.09      1.008
   129          C      7    THR      C    129       0.51     12.011
   130          O      7    THR      O    130      -0.51     15.999   ; qtot 1
; residue   8 TRP rtp TRP  q  0.0
   131        NH1      8    TRP      N    131      -0.47     14.007
   132          H      8    TRP     HN    132       0.31      1.008
   133        CT1      8    TRP     CA    133       0.07     12.011
   134         HB      8    TRP     HA    134       0.09      1.008
   135        CT2      8    TRP     CB    135      -0.18     12.011
   136         HA      8    TRP    HB1    136       0.09      1.008
   137         HA      8    TRP    HB2    137       0.09      1.008
   138         CY      8    TRP     CG    138      -0.03     12.011
   139         CA      8    TRP    CD1    139      0.035     12.011
   140         HP      8    TRP    HD1    140      0.115      1.008
   141         NY      8    TRP    NE1    141      -0.61     14.007
   142          H      8    TRP    HE1    142       0.38      1.008
   143        CPT      8    TRP    CE2    143       0.13     12.011
   144        CPT      8    TRP    CD2    144      -0.02     12.011
   145         CA      8    TRP    CE3    145     -0.115     12.011
   146         HP      8    TRP    HE3    146      0.115      1.008
   147         CA      8    TRP    CZ3    147     -0.115     12.011
   148         HP      8    TRP    HZ3    148      0.115      1.008
   149         CA      8    TRP    CZ2    149     -0.115     12.011
   150         HP      8    TRP    HZ2    150      0.115      1.008
   151         CA      8    TRP    CH2    151     -0.115     12.011
   152         HP      8    TRP    HH2    152      0.115      1.008
   153          C      8    TRP      C    153       0.51     12.011
   154          O      8    TRP      O    154      -0.51     15.999   ; qtot 1
; residue   9 TYR rtp TYR  q -1.0
   155        NH1      9    TYR      N    155      -0.47     14.007
   156          H      9    TYR     HN    156       0.31      1.008
   157        CT1      9    TYR     CA    157       0.07     12.011
   158         HB      9    TYR     HA    158       0.09      1.008
   159        CT2      9    TYR     CB    159      -0.18     12.011
   160         HA      9    TYR    HB1    160       0.09      1.008
   161         HA      9    TYR    HB2    161       0.09      1.008
   162         CA      9    TYR     CG    162          0     12.011
   163         CA      9    TYR    CD1    163     -0.115     12.011
   164         HP      9    TYR    HD1    164      0.115      1.008
   165         CA      9    TYR    CE1    165     -0.115     12.011
   166         HP      9    TYR    HE1    166      0.115      1.008
   167         CA      9    TYR     CZ    167       0.11     12.011
   168        OH1      9    TYR     OH    168      -0.54     15.999
   169          H      9    TYR     HH    169       0.43      1.008
   170         CA      9    TYR    CD2    170     -0.115     12.011
   171         HP      9    TYR    HD2    171      0.115      1.008
   172         CA      9    TYR    CE2    172     -0.115     12.011
   173         HP      9    TYR    HE2    173      0.115      1.008
   174         CC      9    TYR      C    174       0.34     12.011
   175         OC      9    TYR    OT1    175      -0.67    15.9994
   176         OC      9    TYR    OT2    176      -0.67    15.9994   ; qtot 0

[ bonds ]
;  ai    aj funct            c0            c1            c2            c3
    1     2     1 
    1     3     1 
    1     4     1 
    1     5     1 
    5     6     1 
    5     7     1 
    5    22     1 
    7     8     1 
    7     9     1 
    7    10     1 
   10    11     1 
   10    18     1 
   11    12     1 
   11    13     1 
   13    14     1 
   13    15     1 
   15    16     1 
   15    20     1 
   16    17     1 
   18    19     1 
   18    20     1 
   20    21     1 
   22    23     1 
   22    24     1 
   24    25     1 
   24    26     1 
   26    27     1 
   26    28     1 
   26    43     1 
   28    29     1 
   28    30     1 
   28    31     1 
   31    32     1 
   31    39     1 
   32    33     1 
   32    34     1 
   34    35     1 
   34    36     1 
   36    37     1 
   36    41     1 
   37    38     1 
   39    40     1 
   39    41     1 
   41    42     1 
   43    44     1 
   43    45     1 
   45    46     1 
   45    47     1 
   47    48     1 
   47    49     1 
   47    65     1 
   49    50     1 
   49    51     1 
   49    52     1 
   52    53     1 
   52    54     1 
   52    55     1 
   55    56     1 
   55    57     1 
   55    58     1 
   58    59     1 
   58    60     1 
   58    61     1 
   61    62     1 
   61    63     1 
   61    64     1 
   65    66     1 
   65    67     1 
   67    68     1 
   67    71     1 
   68    69     1 
   68    70     1 
   68    76     1 
   71    72     1 
   71    73     1 
   71    79     1 
   73    74     1 
   73    75     1 
   73    76     1 
   76    77     1 
   76    78     1 
   79    80     1 
   79    81     1 
   81    82     1 
   81    83     1 
   83    84     1 
   83    85     1 
   83    94     1 
   85    86     1 
   85    87     1 
   85    88     1 
   88    89     1 
   88    90     1 
   88    91     1 
   91    92     1 
   91    93     1 
   94    95     1 
   94    96     1 
   96    97     1 
   96    98     1 
   98    99     1 
   98   100     1 
   98   108     1 
  100   101     1 
  100   102     1 
  100   104     1 
  102   103     1 
  104   105     1 
  104   106     1 
  104   107     1 
  108   109     1 
  108   110     1 
  110   111     1 
  110   112     1 
  112   113     1 
  112   114     1 
  112   115     1 
  115   116     1 
  115   117     1 
  117   118     1 
  117   119     1 
  119   120     1 
  119   121     1 
  119   129     1 
  121   122     1 
  121   123     1 
  121   125     1 
  123   124     1 
  125   126     1 
  125   127     1 
  125   128     1 
  129   130     1 
  129   131     1 
  131   132     1 
  131   133     1 
  133   134     1 
  133   135     1 
  133   153     1 
  135   136     1 
  135   137     1 
  135   138     1 
  138   139     1 
  138   144     1 
  139   140     1 
  139   141     1 
  141   142     1 
  141   143     1 
  143   144     1 
  143   149     1 
  144   145     1 
  145   146     1 
  145   147     1 
  147   148     1 
  147   151     1 
  149   150     1 
  149   151     1 
  151   152     1 
  153   154     1 
  153   155     1 
  155   156     1 
  155   157     1 
  157   158     1 
  157   159     1 
  157   174     1 
  159   160     1 
  159   161     1 
  159   162     1 
  162   163     1 
  162   170     1 
  163   164     1 
  163   165     1 
  165   166     1 
  165   167     1 
  167   168     1 
  167   172     1 
  168   169     1 
  170   171     1 
  170   172     1 
  172   173     1 
  174   175     1 
  174   176     1 

[ pairs ]
;  ai    aj funct            c0            c1            c2            c3
    1     8     1 
    1     9     1 
    1    10     1 
    1    23     1 
    1    24     1 
    2     6     1 
    2     7     1 
    2    22     1 
    3     6     1 
    3     7     1 
    3    22     1 
    4     6     1 
    4     7     1 
    4    22     1 
    5    11     1 
    5    18     1 
    5    25     1 
    5    26     1 
    6     8     1 
    6     9     1 
    6    10     1 
    6    23     1 
    6    24     1 
    7    12     1 
    7    13     1 
    7    19     1 
    7    20     1 
    7    23     1 
    7    24     1 
    8    11     1 
    8    18     1 
    8    22     1 
    9    11     1 
    9    18     1 
    9    22     1 
   10    14     1 
   10    15     1 
   10    21     1 
   10    22     1 
   11    16     1 
   11    19     1 
   11    20     1 
   12    14     1 
   12    15     1 
   12    18     1 
   13    17     1 
   13    18     1 
   13    21     1 
   14    16     1 
   14    20     1 
   15    19     1 
   16    18     1 
   16    21     1 
   17    20     1 
   19    21     1 
   22    27     1 
   22    28     1 
   22    43     1 
   23    25     1 
   23    26     1 
   24    29     1 
   24    30     1 
   24    31     1 
   24    44     1 
   24    45     1 
   25    27     1 
   25    28     1 
   25    43     1 
   26    32     1 
   26    39     1 
   26    46     1 
   26    47     1 
   27    29     1 
   27    30     1 
   27    31     1 
   27    44     1 
   27    45     1 
   28    33     1 
   28    34     1 
   28    40     1 
   28    41     1 
   28    44     1 
   28    45     1 
   29    32     1 
   29    39     1 
   29    43     1 
   30    32     1 
   30    39     1 
   30    43     1 
   31    35     1 
   31    36     1 
   31    42     1 
   31    43     1 
   32    37     1 
   32    40     1 
   32    41     1 
   33    35     1 
   33    36     1 
   33    39     1 
   34    38     1 
   34    39     1 
   34    42     1 
   35    37     1 
   35    41     1 
   36    40     1 
   37    39     1 
   37    42     1 
   38    41     1 
   40    42     1 
   43    48     1 
   43    49     1 
   43    65     1 
   44    46     1 
   44    47     1 
   45    50     1 
   45    51     1 
   45    52     1 
   45    66     1 
   45    67     1 
   46    48     1 
   46    49     1 
   46    65     1 
   47    53     1 
   47    54     1 
   47    55     1 
   47    68     1 
   47    71     1 
   48    50     1 
   48    51     1 
   48    52     1 
   48    66     1 
   48    67     1 
   49    56     1 
   49    57     1 
   49    58     1 
   49    66     1 
   49    67     1 
   50    53     1 
   50    54     1 
   50    55     1 
   50    65     1 
   51    53     1 
   51    54     1 
   51    55     1 
   51    65     1 
   52    59     1 
   52    60     1 
   52    61     1 
   52    65     1 
   53    56     1 
   53    57     1 
   53    58     1 
   54    56     1 
   54    57     1 
   54    58     1 
   55    62     1 
   55    63     1 
   55    64     1 
   56    59     1 
   56    60     1 
   56    61     1 
   57    59     1 
   57    60     1 
   57    61     1 
   59    62     1 
   59    63     1 
   59    64     1 
   60    62     1 
   60    63     1 
   60    64     1 
   65    69     1 
   65    70     1 
   65    72     1 
   65    73     1 
   65    76     1 
   65    79     1 
   66    68     1 
   66    71     1 
   67    74     1 
   67    75     1 
   67    77     1 
   67    78     1 
   67    80     1 
   67    81     1 
   68    72     1 
   68    74     1 
   68    75     1 
   68    79     1 
   69    71     1 
   69    73     1 
   69    77     1 
   69    78     1 
   70    71     1 
   70    73     1 
   70    77     1 
   70    78     1 
   71    77     1 
   71    78     1 
   71    82     1 
   71    83     1 
   72    74     1 
   72    75     1 
   72    76     1 
   72    80     1 
   72    81     1 
   73    80     1 
   73    81     1 
   74    77     1 
   74    78     1 
   74    79     1 
   75    77     1 
   75    78     1 
   75    79     1 
   76    79     1 
   79    84     1 
   79    85     1 
   79    94     1 
   80    82     1 
   80    83     1 
   81    86     1 
   81    87     1 
   81    88     1 
   81    95     1 
   81    96     1 
   82    84     1 
   82    85     1 
   82    94     1 
   83    89     1 
   83    90     1 
   83    91     1 
   83    97     1 
   83    98     1 
   84    86     1 
   84    87     1 
   84    88     1 
   84    95     1 
   84    96     1 
   85    92     1 
   85    93     1 
   85    95     1 
   85    96     1 
   86    89     1 
   86    90     1 
   86    91     1 
   86    94     1 
   87    89     1 
   87    90     1 
   87    91     1 
   87    94     1 
   88    94     1 
   89    92     1 
   89    93     1 
   90    92     1 
   90    93     1 
   94    99     1 
   94   100     1 
   94   108     1 
   95    97     1 
   95    98     1 
   96   101     1 
   96   102     1 
   96   104     1 
   96   109     1 
   96   110     1 
   97    99     1 
   97   100     1 
   97   108     1 
   98   103     1 
   98   105     1 
   98   106     1 
   98   107     1 
   98   111     1 
   98   112     1 
   99   101     1 
   99   102     1 
   99   104     1 
   99   109     1 
   99   110     1 
  100   109     1 
  100   110     1 
  101   103     1 
  101   105     1 
  101   106     1 
  101   107     1 
  101   108     1 
  102   105     1 
  102   106     1 
  102   107     1 
  102   108     1 
  103   104     1 
  104   108     1 
  108   113     1 
  108   114     1 
  108   115     1 
  109   111     1 
  109   112     1 
  110   116     1 
  110   117     1 
  111   113     1 
  111   114     1 
  111   115     1 
  112   118     1 
  112   119     1 
  113   116     1 
  113   117     1 
  114   116     1 
  114   117     1 
  115   120     1 
  115   121     1 
  115   129     1 
  116   118     1 
  116   119     1 
  117   122     1 
  117   123     1 
  117   125     1 
  117   130     1 
  117   131     1 
  118   120     1 
  118   121     1 
  118   129     1 
  119   124     1 
  119   126     1 
  119   127     1 
  119   128     1 
  119   132     1 
  119   133     1 
  120   122     1 
  120   123     1 
  120   125     1 
  120   130     1 
  120   131     1 
  121   130     1 
  121   131     1 
  122   124     1 
  122   126     1 
  122   127     1 
  122   128     1 
  122   129     1 
  123   126     1 
  123   127     1 
  123   128     1 
  123   129     1 
  124   125     1 
  125   129     1 
  129   134     1 
  129   135     1 
  129   153     1 
  130   132     1 
  130   133     1 
  131   136     1 
  131   137     1 
  131   138     1 
  131   154     1 
  131   155     1 
  132   134     1 
  132   135     1 
  132   153     1 
  133   139     1 
  133   144     1 
  133   156     1 
  133   157     1 
  134   136     1 
  134   137     1 
  134   138     1 
  134   154     1 
  134   155     1 
  135   140     1 
  135   141     1 
  135   143     1 
  135   145     1 
  135   154     1 
  135   155     1 
  136   139     1 
  136   144     1 
  136   153     1 
  137   139     1 
  137   144     1 
  137   153     1 
  138   142     1 
  138   146     1 
  138   147     1 
  138   149     1 
  138   153     1 
  139   145     1 
  139   149     1 
  140   142     1 
  140   143     1 
  140   144     1 
  141   145     1 
  141   150     1 
  141   151     1 
  142   144     1 
  142   149     1 
  143   146     1 
  143   147     1 
  143   152     1 
  144   148     1 
  144   150     1 
  144   151     1 
  145   149     1 
  145   152     1 
  146   148     1 
  146   151     1 
  147   150     1 
  148   149     1 
  148   152     1 
  150   152     1 
  153   158     1 
  153   159     1 
  153   174     1 
  154   156     1 
  154   157     1 
  155   160     1 
  155   161     1 
  155   162     1 
  155   175     1 
  155   176     1 
  156   158     1 
  156   159     1 
  156   174     1 
  157   163     1 
  157   170     1 
  158   160     1 
  158   161     1 
  158   162     1 
  158   175     1 
  158   176     1 
  159   164     1 
  159   165     1 
  159   171     1 
  159   172     1 
  159   175     1 
  159   176     1 
  160   163     1 
  160   170     1 
  160   174     1 
  161   163     1 
  161   170     1 
  161   174     1 
  162   166     1 
  162   167     1 
  162   173     1 
  162   174     1 
  163   168     1 
  163   171     1 
  163   172     1 
  164   166     1 
  164   167     1 
  164   170     1 
  165   169     1 
  165   170     1 
  165   173     1 
  166   168     1 
  166   172     1 
  167   171     1 
  168   170     1 
  168   173     1 
  169   172     1 
  171   173     1 

[ angles ]
;  ai    aj    ak funct            c0            c1            c2            c3
    2     1     3     5 
    2     1     4     5 
    2     1     5     5 
    3     1     4     5 
    3     1     5     5 
    4     1     5     5 
    1     5     6     5 
    1     5     7     5 
    1     5    22     5 
    6     5     7     5 
    6     5    22     5 
    7     5    22     5 
    5     7     8     5 
    5     7     9     5 
    5     7    10     5 
    8     7     9     5 
    8     7    10     5 
    9     7    10     5 
    7    10    11     5 
    7    10    18     5 
   11    10    18     5 
   10    11    12     5 
   10    11    13     5 
   12    11    13     5 
   11    13    14     5 
   11    13    15     5 
   14    13    15     5 
   13    15    16     5 
   13    15    20     5 
   16    15    20     5 
   15    16    17     5 
   10    18    19     5 
   10    18    20     5 
   19    18    20     5 
   15    20    18     5 
   15    20    21     5 
   18    20    21     5 
    5    22    23     5 
    5    22    24     5 
   23    22    24     5 
   22    24    25     5 
   22    24    26     5 
   25    24    26     5 
   24    26    27     5 
   24    26    28     5 
   24    26    43     5 
   27    26    28     5 
   27    26    43     5 
   28    26    43     5 
   26    28    29     5 
   26    28    30     5 
   26    28    31     5 
   29    28    30     5 
   29    28    31     5 
   30    28    31     5 
   28    31    32     5 
   28    31    39     5 
   32    31    39     5 
   31    32    33     5 
   31    32    34     5 
   33    32    34     5 
   32    34    35     5 
   32    34    36     5 
   35    34    36     5 
   34    36    37     5 
   34    36    41     5 
   37    36    41     5 
   36    37    38     5 
   31    39    40     5 
   31    39    41     5 
   40    39    41     5 
   36    41    39     5 
   36    41    42     5 
   39    41    42     5 
   26    43    44     5 
   26    43    45     5 
   44    43    45     5 
   43    45    46     5 
   43    45    47     5 
   46    45    47     5 
   45    47    48     5 
   45    47    49     5 
   45    47    65     5 
   48    47    49     5 
   48    47    65     5 
   49    47    65     5 
   47    49    50     5 
   47    49    51     5 
   47    49    52     5 
   50    49    51     5 
   50    49    52     5 
   51    49    52     5 
   49    52    53     5 
   49    52    54     5 
   49    52    55     5 
   53    52    54     5 
   53    52    55     5 
   54    52    55     5 
   52    55    56     5 
   52    55    57     5 
   52    55    58     5 
   56    55    57     5 
   56    55    58     5 
   57    55    58     5 
   55    58    59     5 
   55    58    60     5 
   55    58    61     5 
   59    58    60     5 
   59    58    61     5 
   60    58    61     5 
   58    61    62     5 
   58    61    63     5 
   58    61    64     5 
   62    61    63     5 
   62    61    64     5 
   63    61    64     5 
   47    65    66     5 
   47    65    67     5 
   66    65    67     5 
   65    67    68     5 
   65    67    71     5 
   68    67    71     5 
   67    68    69     5 
   67    68    70     5 
   67    68    76     5 
   69    68    70     5 
   69    68    76     5 
   70    68    76     5 
   67    71    72     5 
   67    71    73     5 
   67    71    79     5 
   72    71    73     5 
   72    71    79     5 
   73    71    79     5 
   71    73    74     5 
   71    73    75     5 
   71    73    76     5 
   74    73    75     5 
   74    73    76     5 
   75    73    76     5 
   68    76    73     5 
   68    76    77     5 
   68    76    78     5 
   73    76    77     5 
   73    76    78     5 
   77    76    78     5 
   71    79    80     5 
   71    79    81     5 
   80    79    81     5 
   79    81    82     5 
   79    81    83     5 
   82    81    83     5 
   81    83    84     5 
   81    83    85     5 
   81    83    94     5 
   84    83    85     5 
   84    83    94     5 
   85    83    94     5 
   83    85    86     5 
   83    85    87     5 
   83    85    88     5 
   86    85    87     5 
   86    85    88     5 
   87    85    88     5 
   85    88    89     5 
   85    88    90     5 
   85    88    91     5 
   89    88    90     5 
   89    88    91     5 
   90    88    91     5 
   88    91    92     5 
   88    91    93     5 
   92    91    93     5 
   83    94    95     5 
   83    94    96     5 
   95    94    96     5 
   94    96    97     5 
   94    96    98     5 
   97    96    98     5 
   96    98    99     5 
   96    98   100     5 
   96    98   108     5 
   99    98   100     5 
   99    98   108     5 
  100    98   108     5 
   98   100   101     5 
   98   100   102     5 
   98   100   104     5 
  101   100   102     5 
  101   100   104     5 
  102   100   104     5 
  100   102   103     5 
  100   104   105     5 
  100   104   106     5 
  100   104   107     5 
  105   104   106     5 
  105   104   107     5 
  106   104   107     5 
   98   108   109     5 
   98   108   110     5 
  109   108   110     5 
  108   110   111     5 
  108   110   112     5 
  111   110   112     5 
  110   112   113     5 
  110   112   114     5 
  110   112   115     5 
  113   112   114     5 
  113   112   115     5 
  114   112   115     5 
  112   115   116     5 
  112   115   117     5 
  116   115   117     5 
  115   117   118     5 
  115   117   119     5 
  118   117   119     5 
  117   119   120     5 
  117   119   121     5 
  117   119   129     5 
  120   119   121     5 
  120   119   129     5 
  121   119   129     5 
  119   121   122     5 
  119   121   123     5 
  119   121   125     5 
  122   121   123     5 
  122   121   125     5 
  123   121   125     5 
  121   123   124     5 
  121   125   126     5 
  121   125   127     5 
  121   125   128     5 
  126   125   127     5 
  126   125   128     5 
  127   125   128     5 
  119   129   130     5 
  119   129   131     5 
  130   129   131     5 
  129   131   132     5 
  129   131   133     5 
  132   131   133     5 
  131   133   134     5 
  131   133   135     5 
  131   133   153     5 
  134   133   135     5 
  134   133   153     5 
  135   133   153     5 
  133   135   136     5 
  133   135   137     5 
  133   135   138     5 
  136   135   137     5 
  136   135   138     5 
  137   135   138     5 
  135   138   139     5 
  135   138   144     5 
  139   138   144     5 
  138   139   140     5 
  138   139   141     5 
  140   139   141     5 
  139   141   142     5 
  139   141   143     5 
  142   141   143     5 
  141   143   144     5 
  141   143   149     5 
  144   143   149     5 
  138   144   143     5 
  138   144   145     5 
  143   144   145     5 
  144   145   146     5 
  144   145   147     5 
  146   145   147     5 
  145   147   148     5 
  145   147   151     5 
  148   147   151     5 
  143   149   150     5 
  143   149   151     5 
  150   149   151     5 
  147   151   149     5 
  147   151   152     5 
  149   151   152     5 
  133   153   154     5 
  133   153   155     5 
  154   153   155     5 
  153   155   156     5 
  153   155   157     5 
  156   155   157     5 
  155   157   158     5 
  155   157   159     5 
  155   157   174     5 
  158   157   159     5 
  158   157   174     5 
  159   157   174     5 
  157   159   160     5 
  157   159   161     5 
  157   159   162     5 
  160   159   161     5 
  160   159   162     5 
  161   159   162     5 
  159   162   163     5 
  159   162   170     5 
  163   162   170     5 
  162   163   164     5 
  162   163   165     5 
  164   163   165     5 
  163   165   166     5 
  163   165   167     5 
  166   165   167     5 
  165   167   168     5 
  165   167   172     5 
  168   167   172     5 
  167   168   169     5 
  162   170   171     5 
  162   170   172     5 
  171   170   172     5 
  167   172   170     5 
  167   172   173     5 
  170   172   173     5 
  157   174   175     5 
  157   174   176     5 
  175   174   176     5 

[ dihedrals ]
;  ai    aj    ak    al funct            c0            c1            c2            c3            c4            c5
    2     1     5     6     9 
    2     1     5     7     9 
    2     1     5    22     9 
    3     1     5     6     9 
    3     1     5     7     9 
    3     1     5    22     9 
    4     1     5     6     9 
    4     1     5     7     9 
    4     1     5    22     9 
    1     5     7     8     9 
    1     5     7     9     9 
    1     5     7    10     9 
    6     5     7     8     9 
    6     5     7     9     9 
    6     5     7    10     9 
   22     5     7     8     9 
   22     5     7     9     9 
   22     5     7    10     9 
    1     5    22    23     9 
    1     5    22    24     9 
    6     5    22    23     9 
    6     5    22    24     9 
    7     5    22    23     9 
    7     5    22    24     9 
    5     7    10    11     9 
    5     7    10    18     9 
    8     7    10    11     9 
    8     7    10    18     9 
    9     7    10    11     9 
    9     7    10    18     9 
    7    10    11    12     9 
    7    10    11    13     9 
   18    10    11    12     9 
   18    10    11    13     9 
    7    10    18    19     9 
    7    10    18    20     9 
   11    10    18    19     9 
   11    10    18    20     9 
   10    11    13    14     9 
   10    11    13    15     9 
   12    11    13    14     9 
   12    11    13    15     9 
   11    13    15    16     9 
   11    13    15    20     9 
   14    13    15    16     9 
   14    13    15    20     9 
   13    15    16    17     9 
   20    15    16    17     9 
   13    15    20    18     9 
   13    15    20    21     9 
   16    15    20    18     9 
   16    15    20    21     9 
   10    18    20    15     9 
   10    18    20    21     9 
   19    18    20    15     9 
   19    18    20    21     9 
    5    22    24    25     9 
    5    22    24    26     9 
   23    22    24    25     9 
   23    22    24    26     9 
   22    24    26    27     9 
   22    24    26    28     9 
   22    24    26    43     9 
   25    24    26    27     9 
   25    24    26    28     9 
   25    24    26    43     9 
   24    26    28    29     9 
   24    26    28    30     9 
   24    26    28    31     9 
   27    26    28    29     9 
   27    26    28    30     9 
   27    26    28    31     9 
   43    26    28    29     9 
   43    26    28    30     9 
   43    26    28    31     9 
   24    26    43    44     9 
   24    26    43    45     9 
   27    26    43    44     9 
   27    26    43    45     9 
   28    26    43    44     9 
   28    26    43    45     9 
   26    28    31    32     9 
   26    28    31    39     9 
   29    28    31    32     9 
   29    28    31    39     9 
   30    28    31    32     9 
   30    28    31    39     9 
   28    31    32    33     9 
   28    31    32    34     9 
   39    31    32    33     9 
   39    31    32    34     9 
   28    31    39    40     9 
   28    31    39    41     9 
   32    31    39    40     9 
   32    31    39    41     9 
   31    32    34    35     9 
   31    32    34    36     9 
   33    32    34    35     9 
   33    32    34    36     9 
   32    34    36    37     9 
   32    34    36    41     9 
   35    34    36    37     9 
   35    34    36    41     9 
   34    36    37    38     9 
   41    36    37    38     9 
   34    36    41    39     9 
   34    36    41    42     9 
   37    36    41    39     9 
   37    36    41    42     9 
   31    39    41    36     9 
   31    39    41    42     9 
   40    39    41    36     9 
   40    39    41    42     9 
   26    43    45    46     9 
   26    43    45    47     9 
   44    43    45    46     9 
   44    43    45    47     9 
   43    45    47    48     9 
   43    45    47    49     9 
   43    45    47    65     9 
   46    45    47    48     9 
   46    45    47    49     9 
   46    45    47    65     9 
   45    47    49    50     9 
   45    47    49    51     9 
   45    47    49    52     9 
   48    47    49    50     9 
   48    47    49    51     9 
   48    47    49    52     9 
   65    47    49    50     9 
   65    47    49    51     9 
   65    47    49    52     9 
   45    47    65    66     9 
   45    47    65    67     9 
   48    47    65    66     9 
   48    47    65    67     9 
   49    47    65    66     9 
   49    47    65    67     9 
   47    49    52    53     9 
   47    49    52    54     9 
   47    49    52    55     9 
   50    49    52    53     9 
   50    49    52    54     9 
   50    49    52    55     9 
   51    49    52    53     9 
   51    49    52    54     9 
   51    49    52    55     9 
   49    52    55    56     9 
   49    52    55    57     9 
   49    52    55    58     9 
   53    52    55    56     9 
   53    52    55    57     9 
   53    52    55    58     9 
   54    52    55    56     9 
   54    52    55    57     9 
   54    52    55    58     9 
   52    55    58    59     9 
   52    55    58    60     9 
   52    55    58    61     9 
   56    55    58    59     9 
   56    55    58    60     9 
   56    55    58    61     9 
   57    55    58    59     9 
   57    55    58    60     9 
   57    55    58    61     9 
   55    58    61    62     9 
   55    58    61    63     9 
   55    58    61    64     9 
   59    58    61    62     9 
   59    58    61    63     9 
   59    58    61    64     9 
   60    58    61    62     9 
   60    58    61    63     9 
   60    58    61    64     9 
   47    65    67    68     9 
   47    65    67    71     9 
   66    65    67    68     9 
   66    65    67    71     9 
   65    67    68    69     9 
   65    67    68    70     9 
   65    67    68    76     9 
   71    67    68    69     9 
   71    67    68    70     9 
   71    67    68    76     9 
   65    67    71    72     9 
   65    67    71    73     9 
   65    67    71    79     9 
   68    67    71    72     9 
   68    67    71    73     9 
   68    67    71    79     9 
   67    68    76    73     9 
   67    68    76    77     9 
   67    68    76    78     9 
   69    68    76    73     9 
   69    68    76    77     9 
   69    68    76    78     9 
   70    68    76    73     9 
   70    68    76    77     9 
   70    68    76    78     9 
   67    71    73    74     9 
   67    71    73    75     9 
   67    71    73    76     9 
   72    71    73    74     9 
   72    71    73    75     9 
   72    71    73    76     9 
   79    71    73    74     9 
   79    71    73    75     9 
   79    71    73    76     9 
   67    71    79    80     9 
   67    71    79    81     9 
   72    71    79    80     9 
   72    71    79    81     9 
   73    71    79    80     9 
   73    71    79    81     9 
   71    73    76    68     9 
   71    73    76    77     9 
   71    73    76    78     9 
   74    73    76    68     9 
   74    73    76    77     9 
   74    73    76    78     9 
   75    73    76    68     9 
   75    73    76    77     9 
   75    73    76    78     9 
   71    79    81    82     9 
   71    79    81    83     9 
   80    79    81    82     9 
   80    79    81    83     9 
   79    81    83    84     9 
   79    81    83    85     9 
   79    81    83    94     9 
   82    81    83    84     9 
   82    81    83    85     9 
   82    81    83    94     9 
   81    83    85    86     9 
   81    83    85    87     9 
   81    83    85    88     9 
   84    83    85    86     9 
   84    83    85    87     9 
   84    83    85    88     9 
   94    83    85    86     9 
   94    83    85    87     9 
   94    83    85    88     9 
   81    83    94    95     9 
   81    83    94    96     9 
   84    83    94    95     9 
   84    83    94    96     9 
   85    83    94    95     9 
   85    83    94    96     9 
   83    85    88    89     9 
   83    85    88    90     9 
   83    85    88    91     9 
   86    85    88    89     9 
   86    85    88    90     9 
   86    85    88    91     9 
   87    85    88    89     9 
   87    85    88    90     9 
   87    85    88    91     9 
   85    88    91    92     9 
   85    88    91    93     9 
   89    88    91    92     9 
   89    88    91    93     9 
   90    88    91    92     9 
   90    88    91    93     9 
   83    94    96    97     9 
   83    94    96    98     9 
   95    94    96    97     9 
   95    94    96    98     9 
   94    96    98    99     9 
   94    96    98   100     9 
   94    96    98   108     9 
   97    96    98    99     9 
   97    96    98   100     9 
   97    96    98   108     9 
   96    98   100   101     9 
   96    98   100   102     9 
   96    98   100   104     9 
   99    98   100   101     9 
   99    98   100   102     9 
   99    98   100   104     9 
  108    98   100   101     9 
  108    98   100   102     9 
  108    98   100   104     9 
   96    98   108   109     9 
   96    98   108   110     9 
   99    98   108   109     9 
   99    98   108   110     9 
  100    98   108   109     9 
  100    98   108   110     9 
   98   100   102   103     9 
  101   100   102   103     9 
  104   100   102   103     9 
   98   100   104   105     9 
   98   100   104   106     9 
   98   100   104   107     9 
  101   100   104   105     9 
  101   100   104   106     9 
  101   100   104   107     9 
  102   100   104   105     9 
  102   100   104   106     9 
  102   100   104   107     9 
   98   108   110   111     9 
   98   108   110   112     9 
  109   108   110   111     9 
  109   108   110   112     9 
  108   110   112   113     9 
  108   110   112   114     9 
  108   110   112   115     9 
  111   110   112   113     9 
  111   110   112   114     9 
  111   110   112   115     9 
  110   112   115   116     9 
  110   112   115   117     9 
  113   112   115   116     9 
  113   112   115   117     9 
  114   112   115   116     9 
  114   112   115   117     9 
  112   115   117   118     9 
  112   115   117   119     9 
  116   115   117   118     9 
  116   115   117   119     9 
  115   117   119   120     9 
  115   117   119   121     9 
  115   117   119   129     9 
  118   117   119   120     9 
  118   117   119   121     9 
  118   117   119   129     9 
  117   119   121   122     9 
  117   119   121   123     9 
  117   119   121   125     9 
  120   119   121   122     9 
  120   119   121   123     9 
  120   119   121   125     9 
  129   119   121   122     9 
  129   119   121   123     9 
  129   119   121   125     9 
  117   119   129   130     9 
  117   119   129   131     9 
  120   119   129   130     9 
  120   119   129   131     9 
  121   119   129   130     9 
  121   119   129   131     9 
  119   121   123   124     9 
  122   121   123   124     9 
  125   121   123   124     9 
  119   121   125   126     9 
  119   121   125   127     9 
  119   121   125   128     9 
  122   121   125   126     9 
  122   121   125   127     9 
  122   121   125   128     9 
  123   121   125   126     9 
  123   121   125   127     9 
  123   121   125   128     9 
  119   129   131   132     9 
  119   129   131   133     9 
  130   129   131   132     9 
  130   129   131   133     9 
  129   131   133   134     9 
  129   131   133   135     9 
  129   131   133   153     9 
  132   131   133   134     9 
  132   131   133   135     9 
  132   131   133   153     9 
  131   133   135   136     9 
  131   133   135   137     9 
  131   133   135   138     9 
  134   133   135   136     9 
  134   133   135   137     9 
  134   133   135   138     9 
  153   133   135   136     9 
  153   133   135   137     9 
  153   133   135   138     9 
  131   133   153   154     9 
  131   133   153   155     9 
  134   133   153   154     9 
  134   133   153   155     9 
  135   133   153   154     9 
  135   133   153   155     9 
  133   135   138   139     9 
  133   135   138   144     9 
  136   135   138   139     9 
  136   135   138   144     9 
  137   135   138   139     9 
  137   135   138   144     9 
  135   138   139   140     9 
  135   138   139   141     9 
  144   138   139   140     9 
  144   138   139   141     9 
  135   138   144   143     9 
  135   138   144   145     9 
  139   138   144   143     9 
  139   138   144   145     9 
  138   139   141   142     9 
  138   139   141   143     9 
  140   139   141   142     9 
  140   139   141   143     9 
  139   141   143   144     9 
  139   141   143   149     9 
  142   141   143   144     9 
  142   141   143   149     9 
  141   143   144   138     9 
  141   143   144   145     9 
  149   143   144   138     9 
  149   143   144   145     9 
  141   143   149   150     9 
  141   143   149   151     9 
  144   143   149   150     9 
  144   143   149   151     9 
  138   144   145   146     9 
  138   144   145   147     9 
  143   144   145   146     9 
  143   144   145   147     9 
  144   145   147   148     9 
  144   145   147   151     9 
  146   145   147   148     9 
  146   145   147   151     9 
  145   147   151   149     9 
  145   147   151   152     9 
  148   147   151   149     9 
  148   147   151   152     9 
  143   149   151   147     9 
  143   149   151   152     9 
  150   149   151   147     9 
  150   149   151   152     9 
  133   153   155   156     9 
  133   153   155   157     9 
  154   153   155   156     9 
  154   153   155   157     9 
  153   155   157   158     9 
  153   155   157   159     9 
  153   155   157   174     9 
  156   155   157   158     9 
  156   155   157   159     9 
  156   155   157   174     9 
  155   157   159   160     9 
  155   157   159   161     9 
  155   157   159   162     9 
  158   157   159   160     9 
  158   157   159   161     9 
  158   157   159   162     9 
  174   157   159   160     9 
  174   157   159   161     9 
  174   157   159   162     9 
  155   157   174   175     9 
  155   157   174   176     9 
  158   157   174   175     9 
  158   157   174   176     9 
  159   157   174   175     9 
  159   157   174   176     9 
  157   159   162   163     9 
  157   159   162   170     9 
  160   159   162   163     9 
  160   159   162   170     9 
  161   159   162   163     9 
  161   159   162   170     9 
  159   162   163   164     9 
  159   162   163   165     9 
  170   162   163   164     9 
  170   162   163   165     9 
  159   162   170   171     9 
  159   162   170   172     9 
  163   162   170   171     9 
  163   162   170   172     9 
  162   163   165   166     9 
  162   163   165   167     9 
  164   163   165   166     9 
  164   163   165   167     9 
  163   165   167   168     9 
  163   165   167   172     9 
  166   165   167   168     9 
  166   165   167   172     9 
  165   167   168   169     9 
  172   167   168   169     9 
  165   167   172   170     9 
  165   167   172   173     9 
  168   167   172   170     9 
  168   167   172   173     9 
  162   170   172   167     9 
  162   170   172   173     9 
  171   170   172   167     9 
  171   170   172   173     9 

[ dihedrals ]
;  ai    aj    ak    al funct            c0            c1            c2            c3
   22     5    24    23     2 
   24    22    26    25     2 
   43    26    45    44     2 
   45    43    47    46     2 
   65    47    67    66     2 
   67    65    71    68     2 
   79    71    81    80     2 
   81    79    83    82     2 
   91    88    93    92     2 
   94    83    96    95     2 
   96    94    98    97     2 
  108    98   110   109     2 
  110   108   112   111     2 
  115   112   117   116     2 
  117   115   119   118     2 
  129   119   131   130     2 
  131   129   133   132     2 
  153   133   155   154     2 
  155   153   157   156     2 
  174   157   176   175     2 

[ cmap ]
;  ai    aj    ak    al    am funct
   65    67    71    79    81     1 
  108   110   112   115   117     1 

; Include Position restraint file
#ifdef POSRES
#include "posre.itp"
#endif

; Include water topology
#include "charmm22star.ff/tip3p.itp"

#ifdef POSRES_WATER
; Position restraint for each water oxygen
[ position_restraints ]
;  i funct       fcx        fcy        fcz
   1    1       1000       1000       1000
#endif

; Include topology for ions
#include "charmm22star.ff/ions.itp"

[ system ]
; Name
Protein in water

[ molecules ]
; Compound        #mols
Protein_chain_A     1
SOL              1756
