;
;	File 'topol.top' was generated
;	By user: muralika.m (21947)
;	On host: zeus
;	At date: Thu Apr  3 21:51:09 2025
;
;	This is a standalone topology file
;
;	Created by:
;	                    :-) GROMACS - gmx pdb2gmx, 2019.6 (-:
;	
;	Executable:   /home/muralika.m/.conda/envs/muralika/bin/gmx_mpi
;	Data prefix:  /home/muralika.m/.conda/envs/muralika
;	Working dir:  /rg/mendels_prj/muralika.m/ub/New_mutns/YYMPETGTWY
;	Command line:
;	  gmx_mpi pdb2gmx -f YYMPETGTWY.pdb -o processed_structure.gro -p topol.top -asp -glu -ter
;	Force field was read from the standard GROMACS share directory.
;

; Include forcefield parameters
#include "charmm22star.ff/forcefield.itp"

[ moleculetype ]
; Name            nrexcl
Protein_chain_A     3

[ atoms ]
;   nr       type  resnr residue  atom   cgnr     charge       mass  typeB    chargeB      massB
; residue   0 TYR rtp TYR  q +1.0
     1        NH3      0    TYR      N      1       -0.3    14.0027
     2         HC      0    TYR     H1      2       0.33      1.008
     3         HC      0    TYR     H2      3       0.33      1.008
     4         HC      0    TYR     H3      4       0.33      1.008
     5        CT1      0    TYR     CA      5       0.21     12.011
     6         HB      0    TYR     HA      6        0.1      1.008
     7        CT2      0    TYR     CB      7      -0.18     12.011
     8         HA      0    TYR    HB1      8       0.09      1.008
     9         HA      0    TYR    HB2      9       0.09      1.008
    10         CA      0    TYR     CG     10          0     12.011
    11         CA      0    TYR    CD1     11     -0.115     12.011
    12         HP      0    TYR    HD1     12      0.115      1.008
    13         CA      0    TYR    CE1     13     -0.115     12.011
    14         HP      0    TYR    HE1     14      0.115      1.008
    15         CA      0    TYR     CZ     15       0.11     12.011
    16        OH1      0    TYR     OH     16      -0.54     15.999
    17          H      0    TYR     HH     17       0.43      1.008
    18         CA      0    TYR    CD2     18     -0.115     12.011
    19         HP      0    TYR    HD2     19      0.115      1.008
    20         CA      0    TYR    CE2     20     -0.115     12.011
    21         HP      0    TYR    HE2     21      0.115      1.008
    22          C      0    TYR      C     22       0.51     12.011
    23          O      0    TYR      O     23      -0.51     15.999   ; qtot 1
; residue   1 TYR rtp TYR  q  0.0
    24        NH1      1    TYR      N     24      -0.47     14.007
    25          H      1    TYR     HN     25       0.31      1.008
    26        CT1      1    TYR     CA     26       0.07     12.011
    27         HB      1    TYR     HA     27       0.09      1.008
    28        CT2      1    TYR     CB     28      -0.18     12.011
    29         HA      1    TYR    HB1     29       0.09      1.008
    30         HA      1    TYR    HB2     30       0.09      1.008
    31         CA      1    TYR     CG     31          0     12.011
    32         CA      1    TYR    CD1     32     -0.115     12.011
    33         HP      1    TYR    HD1     33      0.115      1.008
    34         CA      1    TYR    CE1     34     -0.115     12.011
    35         HP      1    TYR    HE1     35      0.115      1.008
    36         CA      1    TYR     CZ     36       0.11     12.011
    37        OH1      1    TYR     OH     37      -0.54     15.999
    38          H      1    TYR     HH     38       0.43      1.008
    39         CA      1    TYR    CD2     39     -0.115     12.011
    40         HP      1    TYR    HD2     40      0.115      1.008
    41         CA      1    TYR    CE2     41     -0.115     12.011
    42         HP      1    TYR    HE2     42      0.115      1.008
    43          C      1    TYR      C     43       0.51     12.011
    44          O      1    TYR      O     44      -0.51     15.999   ; qtot 1
; residue   2 MET rtp MET  q  0.0
    45        NH1      2    MET      N     45      -0.47     14.007
    46          H      2    MET     HN     46       0.31      1.008
    47        CT1      2    MET     CA     47       0.07     12.011
    48         HB      2    MET     HA     48       0.09      1.008
    49        CT2      2    MET     CB     49      -0.18     12.011
    50         HA      2    MET    HB1     50       0.09      1.008
    51         HA      2    MET    HB2     51       0.09      1.008
    52        CT2      2    MET     CG     52      -0.14     12.011
    53         HA      2    MET    HG1     53       0.09      1.008
    54         HA      2    MET    HG2     54       0.09      1.008
    55          S      2    MET     SD     55      -0.09      32.06
    56        CT3      2    MET     CE     56      -0.22     12.011
    57         HA      2    MET    HE1     57       0.09      1.008
    58         HA      2    MET    HE2     58       0.09      1.008
    59         HA      2    MET    HE3     59       0.09      1.008
    60          C      2    MET      C     60       0.51     12.011
    61          O      2    MET      O     61      -0.51     15.999   ; qtot 1
; residue   3 PRO rtp PRO  q  0.0
    62          N      3    PRO      N     62      -0.29     14.007
    63        CP3      3    PRO     CD     63          0     12.011
    64         HA      3    PRO    HD1     64       0.09      1.008
    65         HA      3    PRO    HD2     65       0.09      1.008
    66        CP1      3    PRO     CA     66       0.02     12.011
    67         HB      3    PRO     HA     67       0.09      1.008
    68        CP2      3    PRO     CB     68      -0.18     12.011
    69         HA      3    PRO    HB1     69       0.09      1.008
    70         HA      3    PRO    HB2     70       0.09      1.008
    71        CP2      3    PRO     CG     71      -0.18     12.011
    72         HA      3    PRO    HG1     72       0.09      1.008
    73         HA      3    PRO    HG2     73       0.09      1.008
    74          C      3    PRO      C     74       0.51     12.011
    75          O      3    PRO      O     75      -0.51     15.999   ; qtot 1
; residue   4 GLU rtp GLU  q -1.0
    76        NH1      4    GLU      N     76      -0.47     14.007
    77          H      4    GLU     HN     77       0.31      1.008
    78        CT1      4    GLU     CA     78       0.07     12.011
    79         HB      4    GLU     HA     79       0.09      1.008
    80        CT2      4    GLU     CB     80      -0.18     12.011
    81         HA      4    GLU    HB1     81       0.09      1.008
    82         HA      4    GLU    HB2     82       0.09      1.008
    83        CT2      4    GLU     CG     83      -0.28     12.011
    84         HA      4    GLU    HG1     84       0.05      1.008
    85         HA      4    GLU    HG2     85       0.05      1.008
    86         CC      4    GLU     CD     86       0.56     12.011
    87         OC      4    GLU    OE1     87      -0.69     15.999
    88         OC      4    GLU    OE2     88      -0.69     15.999
    89          C      4    GLU      C     89       0.51     12.011
    90          O      4    GLU      O     90      -0.51     15.999   ; qtot 0
; residue   5 THR rtp THR  q  0.0
    91        NH1      5    THR      N     91      -0.47     14.007
    92          H      5    THR     HN     92       0.31      1.008
    93        CT1      5    THR     CA     93       0.07     12.011
    94         HB      5    THR     HA     94       0.09      1.008
    95        CT1      5    THR     CB     95       0.14     12.011
    96         HA      5    THR     HB     96       0.09      1.008
    97        OH1      5    THR    OG1     97      -0.66     15.999
    98          H      5    THR    HG1     98       0.43      1.008
    99        CT3      5    THR    CG2     99      -0.27     12.011
   100         HA      5    THR   HG21    100       0.09      1.008
   101         HA      5    THR   HG22    101       0.09      1.008
   102         HA      5    THR   HG23    102       0.09      1.008
   103          C      5    THR      C    103       0.51     12.011
   104          O      5    THR      O    104      -0.51     15.999   ; qtot 0
; residue   6 GLY rtp GLY  q  0.0
   105        NH1      6    GLY      N    105      -0.47     14.007
   106          H      6    GLY     HN    106       0.31      1.008
   107        CT2      6    GLY     CA    107      -0.02     12.011
   108         HB      6    GLY    HA1    108       0.09      1.008
   109         HB      6    GLY    HA2    109       0.09      1.008
   110          C      6    GLY      C    110       0.51     12.011
   111          O      6    GLY      O    111      -0.51     15.999   ; qtot 0
; residue   7 THR rtp THR  q  0.0
   112        NH1      7    THR      N    112      -0.47     14.007
   113          H      7    THR     HN    113       0.31      1.008
   114        CT1      7    THR     CA    114       0.07     12.011
   115         HB      7    THR     HA    115       0.09      1.008
   116        CT1      7    THR     CB    116       0.14     12.011
   117         HA      7    THR     HB    117       0.09      1.008
   118        OH1      7    THR    OG1    118      -0.66     15.999
   119          H      7    THR    HG1    119       0.43      1.008
   120        CT3      7    THR    CG2    120      -0.27     12.011
   121         HA      7    THR   HG21    121       0.09      1.008
   122         HA      7    THR   HG22    122       0.09      1.008
   123         HA      7    THR   HG23    123       0.09      1.008
   124          C      7    THR      C    124       0.51     12.011
   125          O      7    THR      O    125      -0.51     15.999   ; qtot 0
; residue   8 TRP rtp TRP  q  0.0
   126        NH1      8    TRP      N    126      -0.47     14.007
   127          H      8    TRP     HN    127       0.31      1.008
   128        CT1      8    TRP     CA    128       0.07     12.011
   129         HB      8    TRP     HA    129       0.09      1.008
   130        CT2      8    TRP     CB    130      -0.18     12.011
   131         HA      8    TRP    HB1    131       0.09      1.008
   132         HA      8    TRP    HB2    132       0.09      1.008
   133         CY      8    TRP     CG    133      -0.03     12.011
   134         CA      8    TRP    CD1    134      0.035     12.011
   135         HP      8    TRP    HD1    135      0.115      1.008
   136         NY      8    TRP    NE1    136      -0.61     14.007
   137          H      8    TRP    HE1    137       0.38      1.008
   138        CPT      8    TRP    CE2    138       0.13     12.011
   139        CPT      8    TRP    CD2    139      -0.02     12.011
   140         CA      8    TRP    CE3    140     -0.115     12.011
   141         HP      8    TRP    HE3    141      0.115      1.008
   142         CA      8    TRP    CZ3    142     -0.115     12.011
   143         HP      8    TRP    HZ3    143      0.115      1.008
   144         CA      8    TRP    CZ2    144     -0.115     12.011
   145         HP      8    TRP    HZ2    145      0.115      1.008
   146         CA      8    TRP    CH2    146     -0.115     12.011
   147         HP      8    TRP    HH2    147      0.115      1.008
   148          C      8    TRP      C    148       0.51     12.011
   149          O      8    TRP      O    149      -0.51     15.999   ; qtot 0
; residue   9 TYR rtp TYR  q -1.0
   150        NH1      9    TYR      N    150      -0.47     14.007
   151          H      9    TYR     HN    151       0.31      1.008
   152        CT1      9    TYR     CA    152       0.07     12.011
   153         HB      9    TYR     HA    153       0.09      1.008
   154        CT2      9    TYR     CB    154      -0.18     12.011
   155         HA      9    TYR    HB1    155       0.09      1.008
   156         HA      9    TYR    HB2    156       0.09      1.008
   157         CA      9    TYR     CG    157          0     12.011
   158         CA      9    TYR    CD1    158     -0.115     12.011
   159         HP      9    TYR    HD1    159      0.115      1.008
   160         CA      9    TYR    CE1    160     -0.115     12.011
   161         HP      9    TYR    HE1    161      0.115      1.008
   162         CA      9    TYR     CZ    162       0.11     12.011
   163        OH1      9    TYR     OH    163      -0.54     15.999
   164          H      9    TYR     HH    164       0.43      1.008
   165         CA      9    TYR    CD2    165     -0.115     12.011
   166         HP      9    TYR    HD2    166      0.115      1.008
   167         CA      9    TYR    CE2    167     -0.115     12.011
   168         HP      9    TYR    HE2    168      0.115      1.008
   169         CC      9    TYR      C    169       0.34     12.011
   170         OC      9    TYR    OT1    170      -0.67    15.9994
   171         OC      9    TYR    OT2    171      -0.67    15.9994   ; qtot -1

[ bonds ]
;  ai    aj funct            c0            c1            c2            c3
    1     2     1 
    1     3     1 
    1     4     1 
    1     5     1 
    5     6     1 
    5     7     1 
    5    22     1 
    7     8     1 
    7     9     1 
    7    10     1 
   10    11     1 
   10    18     1 
   11    12     1 
   11    13     1 
   13    14     1 
   13    15     1 
   15    16     1 
   15    20     1 
   16    17     1 
   18    19     1 
   18    20     1 
   20    21     1 
   22    23     1 
   22    24     1 
   24    25     1 
   24    26     1 
   26    27     1 
   26    28     1 
   26    43     1 
   28    29     1 
   28    30     1 
   28    31     1 
   31    32     1 
   31    39     1 
   32    33     1 
   32    34     1 
   34    35     1 
   34    36     1 
   36    37     1 
   36    41     1 
   37    38     1 
   39    40     1 
   39    41     1 
   41    42     1 
   43    44     1 
   43    45     1 
   45    46     1 
   45    47     1 
   47    48     1 
   47    49     1 
   47    60     1 
   49    50     1 
   49    51     1 
   49    52     1 
   52    53     1 
   52    54     1 
   52    55     1 
   55    56     1 
   56    57     1 
   56    58     1 
   56    59     1 
   60    61     1 
   60    62     1 
   62    63     1 
   62    66     1 
   63    64     1 
   63    65     1 
   63    71     1 
   66    67     1 
   66    68     1 
   66    74     1 
   68    69     1 
   68    70     1 
   68    71     1 
   71    72     1 
   71    73     1 
   74    75     1 
   74    76     1 
   76    77     1 
   76    78     1 
   78    79     1 
   78    80     1 
   78    89     1 
   80    81     1 
   80    82     1 
   80    83     1 
   83    84     1 
   83    85     1 
   83    86     1 
   86    87     1 
   86    88     1 
   89    90     1 
   89    91     1 
   91    92     1 
   91    93     1 
   93    94     1 
   93    95     1 
   93   103     1 
   95    96     1 
   95    97     1 
   95    99     1 
   97    98     1 
   99   100     1 
   99   101     1 
   99   102     1 
  103   104     1 
  103   105     1 
  105   106     1 
  105   107     1 
  107   108     1 
  107   109     1 
  107   110     1 
  110   111     1 
  110   112     1 
  112   113     1 
  112   114     1 
  114   115     1 
  114   116     1 
  114   124     1 
  116   117     1 
  116   118     1 
  116   120     1 
  118   119     1 
  120   121     1 
  120   122     1 
  120   123     1 
  124   125     1 
  124   126     1 
  126   127     1 
  126   128     1 
  128   129     1 
  128   130     1 
  128   148     1 
  130   131     1 
  130   132     1 
  130   133     1 
  133   134     1 
  133   139     1 
  134   135     1 
  134   136     1 
  136   137     1 
  136   138     1 
  138   139     1 
  138   144     1 
  139   140     1 
  140   141     1 
  140   142     1 
  142   143     1 
  142   146     1 
  144   145     1 
  144   146     1 
  146   147     1 
  148   149     1 
  148   150     1 
  150   151     1 
  150   152     1 
  152   153     1 
  152   154     1 
  152   169     1 
  154   155     1 
  154   156     1 
  154   157     1 
  157   158     1 
  157   165     1 
  158   159     1 
  158   160     1 
  160   161     1 
  160   162     1 
  162   163     1 
  162   167     1 
  163   164     1 
  165   166     1 
  165   167     1 
  167   168     1 
  169   170     1 
  169   171     1 

[ pairs ]
;  ai    aj funct            c0            c1            c2            c3
    1     8     1 
    1     9     1 
    1    10     1 
    1    23     1 
    1    24     1 
    2     6     1 
    2     7     1 
    2    22     1 
    3     6     1 
    3     7     1 
    3    22     1 
    4     6     1 
    4     7     1 
    4    22     1 
    5    11     1 
    5    18     1 
    5    25     1 
    5    26     1 
    6     8     1 
    6     9     1 
    6    10     1 
    6    23     1 
    6    24     1 
    7    12     1 
    7    13     1 
    7    19     1 
    7    20     1 
    7    23     1 
    7    24     1 
    8    11     1 
    8    18     1 
    8    22     1 
    9    11     1 
    9    18     1 
    9    22     1 
   10    14     1 
   10    15     1 
   10    21     1 
   10    22     1 
   11    16     1 
   11    19     1 
   11    20     1 
   12    14     1 
   12    15     1 
   12    18     1 
   13    17     1 
   13    18     1 
   13    21     1 
   14    16     1 
   14    20     1 
   15    19     1 
   16    18     1 
   16    21     1 
   17    20     1 
   19    21     1 
   22    27     1 
   22    28     1 
   22    43     1 
   23    25     1 
   23    26     1 
   24    29     1 
   24    30     1 
   24    31     1 
   24    44     1 
   24    45     1 
   25    27     1 
   25    28     1 
   25    43     1 
   26    32     1 
   26    39     1 
   26    46     1 
   26    47     1 
   27    29     1 
   27    30     1 
   27    31     1 
   27    44     1 
   27    45     1 
   28    33     1 
   28    34     1 
   28    40     1 
   28    41     1 
   28    44     1 
   28    45     1 
   29    32     1 
   29    39     1 
   29    43     1 
   30    32     1 
   30    39     1 
   30    43     1 
   31    35     1 
   31    36     1 
   31    42     1 
   31    43     1 
   32    37     1 
   32    40     1 
   32    41     1 
   33    35     1 
   33    36     1 
   33    39     1 
   34    38     1 
   34    39     1 
   34    42     1 
   35    37     1 
   35    41     1 
   36    40     1 
   37    39     1 
   37    42     1 
   38    41     1 
   40    42     1 
   43    48     1 
   43    49     1 
   43    60     1 
   44    46     1 
   44    47     1 
   45    50     1 
   45    51     1 
   45    52     1 
   45    61     1 
   45    62     1 
   46    48     1 
   46    49     1 
   46    60     1 
   47    53     1 
   47    54     1 
   47    55     1 
   47    63     1 
   47    66     1 
   48    50     1 
   48    51     1 
   48    52     1 
   48    61     1 
   48    62     1 
   49    56     1 
   49    61     1 
   49    62     1 
   50    53     1 
   50    54     1 
   50    55     1 
   50    60     1 
   51    53     1 
   51    54     1 
   51    55     1 
   51    60     1 
   52    57     1 
   52    58     1 
   52    59     1 
   52    60     1 
   53    56     1 
   54    56     1 
   60    64     1 
   60    65     1 
   60    67     1 
   60    68     1 
   60    71     1 
   60    74     1 
   61    63     1 
   61    66     1 
   62    69     1 
   62    70     1 
   62    72     1 
   62    73     1 
   62    75     1 
   62    76     1 
   63    67     1 
   63    69     1 
   63    70     1 
   63    74     1 
   64    66     1 
   64    68     1 
   64    72     1 
   64    73     1 
   65    66     1 
   65    68     1 
   65    72     1 
   65    73     1 
   66    72     1 
   66    73     1 
   66    77     1 
   66    78     1 
   67    69     1 
   67    70     1 
   67    71     1 
   67    75     1 
   67    76     1 
   68    75     1 
   68    76     1 
   69    72     1 
   69    73     1 
   69    74     1 
   70    72     1 
   70    73     1 
   70    74     1 
   71    74     1 
   74    79     1 
   74    80     1 
   74    89     1 
   75    77     1 
   75    78     1 
   76    81     1 
   76    82     1 
   76    83     1 
   76    90     1 
   76    91     1 
   77    79     1 
   77    80     1 
   77    89     1 
   78    84     1 
   78    85     1 
   78    86     1 
   78    92     1 
   78    93     1 
   79    81     1 
   79    82     1 
   79    83     1 
   79    90     1 
   79    91     1 
   80    87     1 
   80    88     1 
   80    90     1 
   80    91     1 
   81    84     1 
   81    85     1 
   81    86     1 
   81    89     1 
   82    84     1 
   82    85     1 
   82    86     1 
   82    89     1 
   83    89     1 
   84    87     1 
   84    88     1 
   85    87     1 
   85    88     1 
   89    94     1 
   89    95     1 
   89   103     1 
   90    92     1 
   90    93     1 
   91    96     1 
   91    97     1 
   91    99     1 
   91   104     1 
   91   105     1 
   92    94     1 
   92    95     1 
   92   103     1 
   93    98     1 
   93   100     1 
   93   101     1 
   93   102     1 
   93   106     1 
   93   107     1 
   94    96     1 
   94    97     1 
   94    99     1 
   94   104     1 
   94   105     1 
   95   104     1 
   95   105     1 
   96    98     1 
   96   100     1 
   96   101     1 
   96   102     1 
   96   103     1 
   97   100     1 
   97   101     1 
   97   102     1 
   97   103     1 
   98    99     1 
   99   103     1 
  103   108     1 
  103   109     1 
  103   110     1 
  104   106     1 
  104   107     1 
  105   111     1 
  105   112     1 
  106   108     1 
  106   109     1 
  106   110     1 
  107   113     1 
  107   114     1 
  108   111     1 
  108   112     1 
  109   111     1 
  109   112     1 
  110   115     1 
  110   116     1 
  110   124     1 
  111   113     1 
  111   114     1 
  112   117     1 
  112   118     1 
  112   120     1 
  112   125     1 
  112   126     1 
  113   115     1 
  113   116     1 
  113   124     1 
  114   119     1 
  114   121     1 
  114   122     1 
  114   123     1 
  114   127     1 
  114   128     1 
  115   117     1 
  115   118     1 
  115   120     1 
  115   125     1 
  115   126     1 
  116   125     1 
  116   126     1 
  117   119     1 
  117   121     1 
  117   122     1 
  117   123     1 
  117   124     1 
  118   121     1 
  118   122     1 
  118   123     1 
  118   124     1 
  119   120     1 
  120   124     1 
  124   129     1 
  124   130     1 
  124   148     1 
  125   127     1 
  125   128     1 
  126   131     1 
  126   132     1 
  126   133     1 
  126   149     1 
  126   150     1 
  127   129     1 
  127   130     1 
  127   148     1 
  128   134     1 
  128   139     1 
  128   151     1 
  128   152     1 
  129   131     1 
  129   132     1 
  129   133     1 
  129   149     1 
  129   150     1 
  130   135     1 
  130   136     1 
  130   138     1 
  130   140     1 
  130   149     1 
  130   150     1 
  131   134     1 
  131   139     1 
  131   148     1 
  132   134     1 
  132   139     1 
  132   148     1 
  133   137     1 
  133   141     1 
  133   142     1 
  133   144     1 
  133   148     1 
  134   140     1 
  134   144     1 
  135   137     1 
  135   138     1 
  135   139     1 
  136   140     1 
  136   145     1 
  136   146     1 
  137   139     1 
  137   144     1 
  138   141     1 
  138   142     1 
  138   147     1 
  139   143     1 
  139   145     1 
  139   146     1 
  140   144     1 
  140   147     1 
  141   143     1 
  141   146     1 
  142   145     1 
  143   144     1 
  143   147     1 
  145   147     1 
  148   153     1 
  148   154     1 
  148   169     1 
  149   151     1 
  149   152     1 
  150   155     1 
  150   156     1 
  150   157     1 
  150   170     1 
  150   171     1 
  151   153     1 
  151   154     1 
  151   169     1 
  152   158     1 
  152   165     1 
  153   155     1 
  153   156     1 
  153   157     1 
  153   170     1 
  153   171     1 
  154   159     1 
  154   160     1 
  154   166     1 
  154   167     1 
  154   170     1 
  154   171     1 
  155   158     1 
  155   165     1 
  155   169     1 
  156   158     1 
  156   165     1 
  156   169     1 
  157   161     1 
  157   162     1 
  157   168     1 
  157   169     1 
  158   163     1 
  158   166     1 
  158   167     1 
  159   161     1 
  159   162     1 
  159   165     1 
  160   164     1 
  160   165     1 
  160   168     1 
  161   163     1 
  161   167     1 
  162   166     1 
  163   165     1 
  163   168     1 
  164   167     1 
  166   168     1 

[ angles ]
;  ai    aj    ak funct            c0            c1            c2            c3
    2     1     3     5 
    2     1     4     5 
    2     1     5     5 
    3     1     4     5 
    3     1     5     5 
    4     1     5     5 
    1     5     6     5 
    1     5     7     5 
    1     5    22     5 
    6     5     7     5 
    6     5    22     5 
    7     5    22     5 
    5     7     8     5 
    5     7     9     5 
    5     7    10     5 
    8     7     9     5 
    8     7    10     5 
    9     7    10     5 
    7    10    11     5 
    7    10    18     5 
   11    10    18     5 
   10    11    12     5 
   10    11    13     5 
   12    11    13     5 
   11    13    14     5 
   11    13    15     5 
   14    13    15     5 
   13    15    16     5 
   13    15    20     5 
   16    15    20     5 
   15    16    17     5 
   10    18    19     5 
   10    18    20     5 
   19    18    20     5 
   15    20    18     5 
   15    20    21     5 
   18    20    21     5 
    5    22    23     5 
    5    22    24     5 
   23    22    24     5 
   22    24    25     5 
   22    24    26     5 
   25    24    26     5 
   24    26    27     5 
   24    26    28     5 
   24    26    43     5 
   27    26    28     5 
   27    26    43     5 
   28    26    43     5 
   26    28    29     5 
   26    28    30     5 
   26    28    31     5 
   29    28    30     5 
   29    28    31     5 
   30    28    31     5 
   28    31    32     5 
   28    31    39     5 
   32    31    39     5 
   31    32    33     5 
   31    32    34     5 
   33    32    34     5 
   32    34    35     5 
   32    34    36     5 
   35    34    36     5 
   34    36    37     5 
   34    36    41     5 
   37    36    41     5 
   36    37    38     5 
   31    39    40     5 
   31    39    41     5 
   40    39    41     5 
   36    41    39     5 
   36    41    42     5 
   39    41    42     5 
   26    43    44     5 
   26    43    45     5 
   44    43    45     5 
   43    45    46     5 
   43    45    47     5 
   46    45    47     5 
   45    47    48     5 
   45    47    49     5 
   45    47    60     5 
   48    47    49     5 
   48    47    60     5 
   49    47    60     5 
   47    49    50     5 
   47    49    51     5 
   47    49    52     5 
   50    49    51     5 
   50    49    52     5 
   51    49    52     5 
   49    52    53     5 
   49    52    54     5 
   49    52    55     5 
   53    52    54     5 
   53    52    55     5 
   54    52    55     5 
   52    55    56     5 
   55    56    57     5 
   55    56    58     5 
   55    56    59     5 
   57    56    58     5 
   57    56    59     5 
   58    56    59     5 
   47    60    61     5 
   47    60    62     5 
   61    60    62     5 
   60    62    63     5 
   60    62    66     5 
   63    62    66     5 
   62    63    64     5 
   62    63    65     5 
   62    63    71     5 
   64    63    65     5 
   64    63    71     5 
   65    63    71     5 
   62    66    67     5 
   62    66    68     5 
   62    66    74     5 
   67    66    68     5 
   67    66    74     5 
   68    66    74     5 
   66    68    69     5 
   66    68    70     5 
   66    68    71     5 
   69    68    70     5 
   69    68    71     5 
   70    68    71     5 
   63    71    68     5 
   63    71    72     5 
   63    71    73     5 
   68    71    72     5 
   68    71    73     5 
   72    71    73     5 
   66    74    75     5 
   66    74    76     5 
   75    74    76     5 
   74    76    77     5 
   74    76    78     5 
   77    76    78     5 
   76    78    79     5 
   76    78    80     5 
   76    78    89     5 
   79    78    80     5 
   79    78    89     5 
   80    78    89     5 
   78    80    81     5 
   78    80    82     5 
   78    80    83     5 
   81    80    82     5 
   81    80    83     5 
   82    80    83     5 
   80    83    84     5 
   80    83    85     5 
   80    83    86     5 
   84    83    85     5 
   84    83    86     5 
   85    83    86     5 
   83    86    87     5 
   83    86    88     5 
   87    86    88     5 
   78    89    90     5 
   78    89    91     5 
   90    89    91     5 
   89    91    92     5 
   89    91    93     5 
   92    91    93     5 
   91    93    94     5 
   91    93    95     5 
   91    93   103     5 
   94    93    95     5 
   94    93   103     5 
   95    93   103     5 
   93    95    96     5 
   93    95    97     5 
   93    95    99     5 
   96    95    97     5 
   96    95    99     5 
   97    95    99     5 
   95    97    98     5 
   95    99   100     5 
   95    99   101     5 
   95    99   102     5 
  100    99   101     5 
  100    99   102     5 
  101    99   102     5 
   93   103   104     5 
   93   103   105     5 
  104   103   105     5 
  103   105   106     5 
  103   105   107     5 
  106   105   107     5 
  105   107   108     5 
  105   107   109     5 
  105   107   110     5 
  108   107   109     5 
  108   107   110     5 
  109   107   110     5 
  107   110   111     5 
  107   110   112     5 
  111   110   112     5 
  110   112   113     5 
  110   112   114     5 
  113   112   114     5 
  112   114   115     5 
  112   114   116     5 
  112   114   124     5 
  115   114   116     5 
  115   114   124     5 
  116   114   124     5 
  114   116   117     5 
  114   116   118     5 
  114   116   120     5 
  117   116   118     5 
  117   116   120     5 
  118   116   120     5 
  116   118   119     5 
  116   120   121     5 
  116   120   122     5 
  116   120   123     5 
  121   120   122     5 
  121   120   123     5 
  122   120   123     5 
  114   124   125     5 
  114   124   126     5 
  125   124   126     5 
  124   126   127     5 
  124   126   128     5 
  127   126   128     5 
  126   128   129     5 
  126   128   130     5 
  126   128   148     5 
  129   128   130     5 
  129   128   148     5 
  130   128   148     5 
  128   130   131     5 
  128   130   132     5 
  128   130   133     5 
  131   130   132     5 
  131   130   133     5 
  132   130   133     5 
  130   133   134     5 
  130   133   139     5 
  134   133   139     5 
  133   134   135     5 
  133   134   136     5 
  135   134   136     5 
  134   136   137     5 
  134   136   138     5 
  137   136   138     5 
  136   138   139     5 
  136   138   144     5 
  139   138   144     5 
  133   139   138     5 
  133   139   140     5 
  138   139   140     5 
  139   140   141     5 
  139   140   142     5 
  141   140   142     5 
  140   142   143     5 
  140   142   146     5 
  143   142   146     5 
  138   144   145     5 
  138   144   146     5 
  145   144   146     5 
  142   146   144     5 
  142   146   147     5 
  144   146   147     5 
  128   148   149     5 
  128   148   150     5 
  149   148   150     5 
  148   150   151     5 
  148   150   152     5 
  151   150   152     5 
  150   152   153     5 
  150   152   154     5 
  150   152   169     5 
  153   152   154     5 
  153   152   169     5 
  154   152   169     5 
  152   154   155     5 
  152   154   156     5 
  152   154   157     5 
  155   154   156     5 
  155   154   157     5 
  156   154   157     5 
  154   157   158     5 
  154   157   165     5 
  158   157   165     5 
  157   158   159     5 
  157   158   160     5 
  159   158   160     5 
  158   160   161     5 
  158   160   162     5 
  161   160   162     5 
  160   162   163     5 
  160   162   167     5 
  163   162   167     5 
  162   163   164     5 
  157   165   166     5 
  157   165   167     5 
  166   165   167     5 
  162   167   165     5 
  162   167   168     5 
  165   167   168     5 
  152   169   170     5 
  152   169   171     5 
  170   169   171     5 

[ dihedrals ]
;  ai    aj    ak    al funct            c0            c1            c2            c3            c4            c5
    2     1     5     6     9 
    2     1     5     7     9 
    2     1     5    22     9 
    3     1     5     6     9 
    3     1     5     7     9 
    3     1     5    22     9 
    4     1     5     6     9 
    4     1     5     7     9 
    4     1     5    22     9 
    1     5     7     8     9 
    1     5     7     9     9 
    1     5     7    10     9 
    6     5     7     8     9 
    6     5     7     9     9 
    6     5     7    10     9 
   22     5     7     8     9 
   22     5     7     9     9 
   22     5     7    10     9 
    1     5    22    23     9 
    1     5    22    24     9 
    6     5    22    23     9 
    6     5    22    24     9 
    7     5    22    23     9 
    7     5    22    24     9 
    5     7    10    11     9 
    5     7    10    18     9 
    8     7    10    11     9 
    8     7    10    18     9 
    9     7    10    11     9 
    9     7    10    18     9 
    7    10    11    12     9 
    7    10    11    13     9 
   18    10    11    12     9 
   18    10    11    13     9 
    7    10    18    19     9 
    7    10    18    20     9 
   11    10    18    19     9 
   11    10    18    20     9 
   10    11    13    14     9 
   10    11    13    15     9 
   12    11    13    14     9 
   12    11    13    15     9 
   11    13    15    16     9 
   11    13    15    20     9 
   14    13    15    16     9 
   14    13    15    20     9 
   13    15    16    17     9 
   20    15    16    17     9 
   13    15    20    18     9 
   13    15    20    21     9 
   16    15    20    18     9 
   16    15    20    21     9 
   10    18    20    15     9 
   10    18    20    21     9 
   19    18    20    15     9 
   19    18    20    21     9 
    5    22    24    25     9 
    5    22    24    26     9 
   23    22    24    25     9 
   23    22    24    26     9 
   22    24    26    27     9 
   22    24    26    28     9 
   22    24    26    43     9 
   25    24    26    27     9 
   25    24    26    28     9 
   25    24    26    43     9 
   24    26    28    29     9 
   24    26    28    30     9 
   24    26    28    31     9 
   27    26    28    29     9 
   27    26    28    30     9 
   27    26    28    31     9 
   43    26    28    29     9 
   43    26    28    30     9 
   43    26    28    31     9 
   24    26    43    44     9 
   24    26    43    45     9 
   27    26    43    44     9 
   27    26    43    45     9 
   28    26    43    44     9 
   28    26    43    45     9 
   26    28    31    32     9 
   26    28    31    39     9 
   29    28    31    32     9 
   29    28    31    39     9 
   30    28    31    32     9 
   30    28    31    39     9 
   28    31    32    33     9 
   28    31    32    34     9 
   39    31    32    33     9 
   39    31    32    34     9 
   28    31    39    40     9 
   28    31    39    41     9 
   32    31    39    40     9 
   32    31    39    41     9 
   31    32    34    35     9 
   31    32    34    36     9 
   33    32    34    35     9 
   33    32    34    36     9 
   32    34    36    37     9 
   32    34    36    41     9 
   35    34    36    37     9 
   35    34    36    41     9 
   34    36    37    38     9 
   41    36    37    38     9 
   34    36    41    39     9 
   34    36    41    42     9 
   37    36    41    39     9 
   37    36    41    42     9 
   31    39    41    36     9 
   31    39    41    42     9 
   40    39    41    36     9 
   40    39    41    42     9 
   26    43    45    46     9 
   26    43    45    47     9 
   44    43    45    46     9 
   44    43    45    47     9 
   43    45    47    48     9 
   43    45    47    49     9 
   43    45    47    60     9 
   46    45    47    48     9 
   46    45    47    49     9 
   46    45    47    60     9 
   45    47    49    50     9 
   45    47    49    51     9 
   45    47    49    52     9 
   48    47    49    50     9 
   48    47    49    51     9 
   48    47    49    52     9 
   60    47    49    50     9 
   60    47    49    51     9 
   60    47    49    52     9 
   45    47    60    61     9 
   45    47    60    62     9 
   48    47    60    61     9 
   48    47    60    62     9 
   49    47    60    61     9 
   49    47    60    62     9 
   47    49    52    53     9 
   47    49    52    54     9 
   47    49    52    55     9 
   50    49    52    53     9 
   50    49    52    54     9 
   50    49    52    55     9 
   51    49    52    53     9 
   51    49    52    54     9 
   51    49    52    55     9 
   49    52    55    56     9 
   53    52    55    56     9 
   54    52    55    56     9 
   52    55    56    57     9 
   52    55    56    58     9 
   52    55    56    59     9 
   47    60    62    63     9 
   47    60    62    66     9 
   61    60    62    63     9 
   61    60    62    66     9 
   60    62    63    64     9 
   60    62    63    65     9 
   60    62    63    71     9 
   66    62    63    64     9 
   66    62    63    65     9 
   66    62    63    71     9 
   60    62    66    67     9 
   60    62    66    68     9 
   60    62    66    74     9 
   63    62    66    67     9 
   63    62    66    68     9 
   63    62    66    74     9 
   62    63    71    68     9 
   62    63    71    72     9 
   62    63    71    73     9 
   64    63    71    68     9 
   64    63    71    72     9 
   64    63    71    73     9 
   65    63    71    68     9 
   65    63    71    72     9 
   65    63    71    73     9 
   62    66    68    69     9 
   62    66    68    70     9 
   62    66    68    71     9 
   67    66    68    69     9 
   67    66    68    70     9 
   67    66    68    71     9 
   74    66    68    69     9 
   74    66    68    70     9 
   74    66    68    71     9 
   62    66    74    75     9 
   62    66    74    76     9 
   67    66    74    75     9 
   67    66    74    76     9 
   68    66    74    75     9 
   68    66    74    76     9 
   66    68    71    63     9 
   66    68    71    72     9 
   66    68    71    73     9 
   69    68    71    63     9 
   69    68    71    72     9 
   69    68    71    73     9 
   70    68    71    63     9 
   70    68    71    72     9 
   70    68    71    73     9 
   66    74    76    77     9 
   66    74    76    78     9 
   75    74    76    77     9 
   75    74    76    78     9 
   74    76    78    79     9 
   74    76    78    80     9 
   74    76    78    89     9 
   77    76    78    79     9 
   77    76    78    80     9 
   77    76    78    89     9 
   76    78    80    81     9 
   76    78    80    82     9 
   76    78    80    83     9 
   79    78    80    81     9 
   79    78    80    82     9 
   79    78    80    83     9 
   89    78    80    81     9 
   89    78    80    82     9 
   89    78    80    83     9 
   76    78    89    90     9 
   76    78    89    91     9 
   79    78    89    90     9 
   79    78    89    91     9 
   80    78    89    90     9 
   80    78    89    91     9 
   78    80    83    84     9 
   78    80    83    85     9 
   78    80    83    86     9 
   81    80    83    84     9 
   81    80    83    85     9 
   81    80    83    86     9 
   82    80    83    84     9 
   82    80    83    85     9 
   82    80    83    86     9 
   80    83    86    87     9 
   80    83    86    88     9 
   84    83    86    87     9 
   84    83    86    88     9 
   85    83    86    87     9 
   85    83    86    88     9 
   78    89    91    92     9 
   78    89    91    93     9 
   90    89    91    92     9 
   90    89    91    93     9 
   89    91    93    94     9 
   89    91    93    95     9 
   89    91    93   103     9 
   92    91    93    94     9 
   92    91    93    95     9 
   92    91    93   103     9 
   91    93    95    96     9 
   91    93    95    97     9 
   91    93    95    99     9 
   94    93    95    96     9 
   94    93    95    97     9 
   94    93    95    99     9 
  103    93    95    96     9 
  103    93    95    97     9 
  103    93    95    99     9 
   91    93   103   104     9 
   91    93   103   105     9 
   94    93   103   104     9 
   94    93   103   105     9 
   95    93   103   104     9 
   95    93   103   105     9 
   93    95    97    98     9 
   96    95    97    98     9 
   99    95    97    98     9 
   93    95    99   100     9 
   93    95    99   101     9 
   93    95    99   102     9 
   96    95    99   100     9 
   96    95    99   101     9 
   96    95    99   102     9 
   97    95    99   100     9 
   97    95    99   101     9 
   97    95    99   102     9 
   93   103   105   106     9 
   93   103   105   107     9 
  104   103   105   106     9 
  104   103   105   107     9 
  103   105   107   108     9 
  103   105   107   109     9 
  103   105   107   110     9 
  106   105   107   108     9 
  106   105   107   109     9 
  106   105   107   110     9 
  105   107   110   111     9 
  105   107   110   112     9 
  108   107   110   111     9 
  108   107   110   112     9 
  109   107   110   111     9 
  109   107   110   112     9 
  107   110   112   113     9 
  107   110   112   114     9 
  111   110   112   113     9 
  111   110   112   114     9 
  110   112   114   115     9 
  110   112   114   116     9 
  110   112   114   124     9 
  113   112   114   115     9 
  113   112   114   116     9 
  113   112   114   124     9 
  112   114   116   117     9 
  112   114   116   118     9 
  112   114   116   120     9 
  115   114   116   117     9 
  115   114   116   118     9 
  115   114   116   120     9 
  124   114   116   117     9 
  124   114   116   118     9 
  124   114   116   120     9 
  112   114   124   125     9 
  112   114   124   126     9 
  115   114   124   125     9 
  115   114   124   126     9 
  116   114   124   125     9 
  116   114   124   126     9 
  114   116   118   119     9 
  117   116   118   119     9 
  120   116   118   119     9 
  114   116   120   121     9 
  114   116   120   122     9 
  114   116   120   123     9 
  117   116   120   121     9 
  117   116   120   122     9 
  117   116   120   123     9 
  118   116   120   121     9 
  118   116   120   122     9 
  118   116   120   123     9 
  114   124   126   127     9 
  114   124   126   128     9 
  125   124   126   127     9 
  125   124   126   128     9 
  124   126   128   129     9 
  124   126   128   130     9 
  124   126   128   148     9 
  127   126   128   129     9 
  127   126   128   130     9 
  127   126   128   148     9 
  126   128   130   131     9 
  126   128   130   132     9 
  126   128   130   133     9 
  129   128   130   131     9 
  129   128   130   132     9 
  129   128   130   133     9 
  148   128   130   131     9 
  148   128   130   132     9 
  148   128   130   133     9 
  126   128   148   149     9 
  126   128   148   150     9 
  129   128   148   149     9 
  129   128   148   150     9 
  130   128   148   149     9 
  130   128   148   150     9 
  128   130   133   134     9 
  128   130   133   139     9 
  131   130   133   134     9 
  131   130   133   139     9 
  132   130   133   134     9 
  132   130   133   139     9 
  130   133   134   135     9 
  130   133   134   136     9 
  139   133   134   135     9 
  139   133   134   136     9 
  130   133   139   138     9 
  130   133   139   140     9 
  134   133   139   138     9 
  134   133   139   140     9 
  133   134   136   137     9 
  133   134   136   138     9 
  135   134   136   137     9 
  135   134   136   138     9 
  134   136   138   139     9 
  134   136   138   144     9 
  137   136   138   139     9 
  137   136   138   144     9 
  136   138   139   133     9 
  136   138   139   140     9 
  144   138   139   133     9 
  144   138   139   140     9 
  136   138   144   145     9 
  136   138   144   146     9 
  139   138   144   145     9 
  139   138   144   146     9 
  133   139   140   141     9 
  133   139   140   142     9 
  138   139   140   141     9 
  138   139   140   142     9 
  139   140   142   143     9 
  139   140   142   146     9 
  141   140   142   143     9 
  141   140   142   146     9 
  140   142   146   144     9 
  140   142   146   147     9 
  143   142   146   144     9 
  143   142   146   147     9 
  138   144   146   142     9 
  138   144   146   147     9 
  145   144   146   142     9 
  145   144   146   147     9 
  128   148   150   151     9 
  128   148   150   152     9 
  149   148   150   151     9 
  149   148   150   152     9 
  148   150   152   153     9 
  148   150   152   154     9 
  148   150   152   169     9 
  151   150   152   153     9 
  151   150   152   154     9 
  151   150   152   169     9 
  150   152   154   155     9 
  150   152   154   156     9 
  150   152   154   157     9 
  153   152   154   155     9 
  153   152   154   156     9 
  153   152   154   157     9 
  169   152   154   155     9 
  169   152   154   156     9 
  169   152   154   157     9 
  150   152   169   170     9 
  150   152   169   171     9 
  153   152   169   170     9 
  153   152   169   171     9 
  154   152   169   170     9 
  154   152   169   171     9 
  152   154   157   158     9 
  152   154   157   165     9 
  155   154   157   158     9 
  155   154   157   165     9 
  156   154   157   158     9 
  156   154   157   165     9 
  154   157   158   159     9 
  154   157   158   160     9 
  165   157   158   159     9 
  165   157   158   160     9 
  154   157   165   166     9 
  154   157   165   167     9 
  158   157   165   166     9 
  158   157   165   167     9 
  157   158   160   161     9 
  157   158   160   162     9 
  159   158   160   161     9 
  159   158   160   162     9 
  158   160   162   163     9 
  158   160   162   167     9 
  161   160   162   163     9 
  161   160   162   167     9 
  160   162   163   164     9 
  167   162   163   164     9 
  160   162   167   165     9 
  160   162   167   168     9 
  163   162   167   165     9 
  163   162   167   168     9 
  157   165   167   162     9 
  157   165   167   168     9 
  166   165   167   162     9 
  166   165   167   168     9 

[ dihedrals ]
;  ai    aj    ak    al funct            c0            c1            c2            c3
   22     5    24    23     2 
   24    22    26    25     2 
   43    26    45    44     2 
   45    43    47    46     2 
   60    47    62    61     2 
   62    60    66    63     2 
   74    66    76    75     2 
   76    74    78    77     2 
   86    83    88    87     2 
   89    78    91    90     2 
   91    89    93    92     2 
  103    93   105   104     2 
  105   103   107   106     2 
  110   107   112   111     2 
  112   110   114   113     2 
  124   114   126   125     2 
  126   124   128   127     2 
  148   128   150   149     2 
  150   148   152   151     2 
  169   152   171   170     2 

[ cmap ]
;  ai    aj    ak    al    am funct
   60    62    66    74    76     1 
  103   105   107   110   112     1 

; Include Position restraint file
#ifdef POSRES
#include "posre.itp"
#endif

; Include water topology
#include "charmm22star.ff/tip3p.itp"

#ifdef POSRES_WATER
; Position restraint for each water oxygen
[ position_restraints ]
;  i funct       fcx        fcy        fcz
   1    1       1000       1000       1000
#endif

; Include topology for ions
#include "charmm22star.ff/ions.itp"

[ system ]
; Name
Protein in water

[ molecules ]
; Compound        #mols
Protein_chain_A     1
SOL         1756
NA               1
