;
;	File 'topol.top' was generated
;	By user: muralika.m (21947)
;	On host: zeus
;	At date: Sat Mar 15 12:28:38 2025
;
;	This is a standalone topology file
;
;	Created by:
;	                    :-) GROMACS - gmx pdb2gmx, 2019.6 (-:
;	
;	Executable:   /home/muralika.m/.conda/envs/muralika/bin/gmx_mpi
;	Data prefix:  /home/muralika.m/.conda/envs/muralika
;	Working dir:  /rg/mendels_prj/muralika.m/ub/New_mutns/YYRPETGTWY
;	Command line:
;	  gmx_mpi pdb2gmx -f YYRPETGTWY.pdb -o processed_structure.gro -p topol.top -asp -glu -ter
;	Force field was read from the standard GROMACS share directory.
;

; Include forcefield parameters
#include "charmm22star.ff/forcefield.itp"

[ moleculetype ]
; Name            nrexcl
Protein_chain_A     3

[ atoms ]
;   nr       type  resnr residue  atom   cgnr     charge       mass  typeB    chargeB      massB
; residue   0 TYR rtp TYR  q +1.0
     1        NH3      0    TYR      N      1       -0.3    14.0027
     2         HC      0    TYR     H1      2       0.33      1.008
     3         HC      0    TYR     H2      3       0.33      1.008
     4         HC      0    TYR     H3      4       0.33      1.008
     5        CT1      0    TYR     CA      5       0.21     12.011
     6         HB      0    TYR     HA      6        0.1      1.008
     7        CT2      0    TYR     CB      7      -0.18     12.011
     8         HA      0    TYR    HB1      8       0.09      1.008
     9         HA      0    TYR    HB2      9       0.09      1.008
    10         CA      0    TYR     CG     10          0     12.011
    11         CA      0    TYR    CD1     11     -0.115     12.011
    12         HP      0    TYR    HD1     12      0.115      1.008
    13         CA      0    TYR    CE1     13     -0.115     12.011
    14         HP      0    TYR    HE1     14      0.115      1.008
    15         CA      0    TYR     CZ     15       0.11     12.011
    16        OH1      0    TYR     OH     16      -0.54     15.999
    17          H      0    TYR     HH     17       0.43      1.008
    18         CA      0    TYR    CD2     18     -0.115     12.011
    19         HP      0    TYR    HD2     19      0.115      1.008
    20         CA      0    TYR    CE2     20     -0.115     12.011
    21         HP      0    TYR    HE2     21      0.115      1.008
    22          C      0    TYR      C     22       0.51     12.011
    23          O      0    TYR      O     23      -0.51     15.999   ; qtot 1
; residue   1 TYR rtp TYR  q  0.0
    24        NH1      1    TYR      N     24      -0.47     14.007
    25          H      1    TYR     HN     25       0.31      1.008
    26        CT1      1    TYR     CA     26       0.07     12.011
    27         HB      1    TYR     HA     27       0.09      1.008
    28        CT2      1    TYR     CB     28      -0.18     12.011
    29         HA      1    TYR    HB1     29       0.09      1.008
    30         HA      1    TYR    HB2     30       0.09      1.008
    31         CA      1    TYR     CG     31          0     12.011
    32         CA      1    TYR    CD1     32     -0.115     12.011
    33         HP      1    TYR    HD1     33      0.115      1.008
    34         CA      1    TYR    CE1     34     -0.115     12.011
    35         HP      1    TYR    HE1     35      0.115      1.008
    36         CA      1    TYR     CZ     36       0.11     12.011
    37        OH1      1    TYR     OH     37      -0.54     15.999
    38          H      1    TYR     HH     38       0.43      1.008
    39         CA      1    TYR    CD2     39     -0.115     12.011
    40         HP      1    TYR    HD2     40      0.115      1.008
    41         CA      1    TYR    CE2     41     -0.115     12.011
    42         HP      1    TYR    HE2     42      0.115      1.008
    43          C      1    TYR      C     43       0.51     12.011
    44          O      1    TYR      O     44      -0.51     15.999   ; qtot 1
; residue   2 ARG rtp ARG  q +1.0
    45        NH1      2    ARG      N     45      -0.47     14.007
    46          H      2    ARG     HN     46       0.31      1.008
    47        CT1      2    ARG     CA     47       0.07     12.011
    48         HB      2    ARG     HA     48       0.09      1.008
    49        CT2      2    ARG     CB     49      -0.18     12.011
    50         HA      2    ARG    HB1     50       0.09      1.008
    51         HA      2    ARG    HB2     51       0.09      1.008
    52        CT2      2    ARG     CG     52      -0.18     12.011
    53         HA      2    ARG    HG1     53       0.09      1.008
    54         HA      2    ARG    HG2     54       0.09      1.008
    55        CT2      2    ARG     CD     55        0.2     12.011
    56         HA      2    ARG    HD1     56       0.09      1.008
    57         HA      2    ARG    HD2     57       0.09      1.008
    58        NC2      2    ARG     NE     58      -0.61     14.007
    59         HC      2    ARG     HE     59       0.38      1.008
    60          C      2    ARG     CZ     60       0.49     12.011
    61        NC2      2    ARG    NH1     61      -0.62     14.007
    62         HC      2    ARG   HH11     62        0.4      1.008
    63         HC      2    ARG   HH12     63        0.4      1.008
    64        NC2      2    ARG    NH2     64      -0.62     14.007
    65         HC      2    ARG   HH21     65        0.4      1.008
    66         HC      2    ARG   HH22     66        0.4      1.008
    67          C      2    ARG      C     67       0.51     12.011
    68          O      2    ARG      O     68      -0.51     15.999   ; qtot 2
; residue   3 PRO rtp PRO  q  0.0
    69          N      3    PRO      N     69      -0.29     14.007
    70        CP3      3    PRO     CD     70          0     12.011
    71         HA      3    PRO    HD1     71       0.09      1.008
    72         HA      3    PRO    HD2     72       0.09      1.008
    73        CP1      3    PRO     CA     73       0.02     12.011
    74         HB      3    PRO     HA     74       0.09      1.008
    75        CP2      3    PRO     CB     75      -0.18     12.011
    76         HA      3    PRO    HB1     76       0.09      1.008
    77         HA      3    PRO    HB2     77       0.09      1.008
    78        CP2      3    PRO     CG     78      -0.18     12.011
    79         HA      3    PRO    HG1     79       0.09      1.008
    80         HA      3    PRO    HG2     80       0.09      1.008
    81          C      3    PRO      C     81       0.51     12.011
    82          O      3    PRO      O     82      -0.51     15.999   ; qtot 2
; residue   4 GLU rtp GLU  q -1.0
    83        NH1      4    GLU      N     83      -0.47     14.007
    84          H      4    GLU     HN     84       0.31      1.008
    85        CT1      4    GLU     CA     85       0.07     12.011
    86         HB      4    GLU     HA     86       0.09      1.008
    87        CT2      4    GLU     CB     87      -0.18     12.011
    88         HA      4    GLU    HB1     88       0.09      1.008
    89         HA      4    GLU    HB2     89       0.09      1.008
    90        CT2      4    GLU     CG     90      -0.28     12.011
    91         HA      4    GLU    HG1     91       0.05      1.008
    92         HA      4    GLU    HG2     92       0.05      1.008
    93         CC      4    GLU     CD     93       0.56     12.011
    94         OC      4    GLU    OE1     94      -0.69     15.999
    95         OC      4    GLU    OE2     95      -0.69     15.999
    96          C      4    GLU      C     96       0.51     12.011
    97          O      4    GLU      O     97      -0.51     15.999   ; qtot 1
; residue   5 THR rtp THR  q  0.0
    98        NH1      5    THR      N     98      -0.47     14.007
    99          H      5    THR     HN     99       0.31      1.008
   100        CT1      5    THR     CA    100       0.07     12.011
   101         HB      5    THR     HA    101       0.09      1.008
   102        CT1      5    THR     CB    102       0.14     12.011
   103         HA      5    THR     HB    103       0.09      1.008
   104        OH1      5    THR    OG1    104      -0.66     15.999
   105          H      5    THR    HG1    105       0.43      1.008
   106        CT3      5    THR    CG2    106      -0.27     12.011
   107         HA      5    THR   HG21    107       0.09      1.008
   108         HA      5    THR   HG22    108       0.09      1.008
   109         HA      5    THR   HG23    109       0.09      1.008
   110          C      5    THR      C    110       0.51     12.011
   111          O      5    THR      O    111      -0.51     15.999   ; qtot 1
; residue   6 GLY rtp GLY  q  0.0
   112        NH1      6    GLY      N    112      -0.47     14.007
   113          H      6    GLY     HN    113       0.31      1.008
   114        CT2      6    GLY     CA    114      -0.02     12.011
   115         HB      6    GLY    HA1    115       0.09      1.008
   116         HB      6    GLY    HA2    116       0.09      1.008
   117          C      6    GLY      C    117       0.51     12.011
   118          O      6    GLY      O    118      -0.51     15.999   ; qtot 1
; residue   7 THR rtp THR  q  0.0
   119        NH1      7    THR      N    119      -0.47     14.007
   120          H      7    THR     HN    120       0.31      1.008
   121        CT1      7    THR     CA    121       0.07     12.011
   122         HB      7    THR     HA    122       0.09      1.008
   123        CT1      7    THR     CB    123       0.14     12.011
   124         HA      7    THR     HB    124       0.09      1.008
   125        OH1      7    THR    OG1    125      -0.66     15.999
   126          H      7    THR    HG1    126       0.43      1.008
   127        CT3      7    THR    CG2    127      -0.27     12.011
   128         HA      7    THR   HG21    128       0.09      1.008
   129         HA      7    THR   HG22    129       0.09      1.008
   130         HA      7    THR   HG23    130       0.09      1.008
   131          C      7    THR      C    131       0.51     12.011
   132          O      7    THR      O    132      -0.51     15.999   ; qtot 1
; residue   8 TRP rtp TRP  q  0.0
   133        NH1      8    TRP      N    133      -0.47     14.007
   134          H      8    TRP     HN    134       0.31      1.008
   135        CT1      8    TRP     CA    135       0.07     12.011
   136         HB      8    TRP     HA    136       0.09      1.008
   137        CT2      8    TRP     CB    137      -0.18     12.011
   138         HA      8    TRP    HB1    138       0.09      1.008
   139         HA      8    TRP    HB2    139       0.09      1.008
   140         CY      8    TRP     CG    140      -0.03     12.011
   141         CA      8    TRP    CD1    141      0.035     12.011
   142         HP      8    TRP    HD1    142      0.115      1.008
   143         NY      8    TRP    NE1    143      -0.61     14.007
   144          H      8    TRP    HE1    144       0.38      1.008
   145        CPT      8    TRP    CE2    145       0.13     12.011
   146        CPT      8    TRP    CD2    146      -0.02     12.011
   147         CA      8    TRP    CE3    147     -0.115     12.011
   148         HP      8    TRP    HE3    148      0.115      1.008
   149         CA      8    TRP    CZ3    149     -0.115     12.011
   150         HP      8    TRP    HZ3    150      0.115      1.008
   151         CA      8    TRP    CZ2    151     -0.115     12.011
   152         HP      8    TRP    HZ2    152      0.115      1.008
   153         CA      8    TRP    CH2    153     -0.115     12.011
   154         HP      8    TRP    HH2    154      0.115      1.008
   155          C      8    TRP      C    155       0.51     12.011
   156          O      8    TRP      O    156      -0.51     15.999   ; qtot 1
; residue   9 TYR rtp TYR  q -1.0
   157        NH1      9    TYR      N    157      -0.47     14.007
   158          H      9    TYR     HN    158       0.31      1.008
   159        CT1      9    TYR     CA    159       0.07     12.011
   160         HB      9    TYR     HA    160       0.09      1.008
   161        CT2      9    TYR     CB    161      -0.18     12.011
   162         HA      9    TYR    HB1    162       0.09      1.008
   163         HA      9    TYR    HB2    163       0.09      1.008
   164         CA      9    TYR     CG    164          0     12.011
   165         CA      9    TYR    CD1    165     -0.115     12.011
   166         HP      9    TYR    HD1    166      0.115      1.008
   167         CA      9    TYR    CE1    167     -0.115     12.011
   168         HP      9    TYR    HE1    168      0.115      1.008
   169         CA      9    TYR     CZ    169       0.11     12.011
   170        OH1      9    TYR     OH    170      -0.54     15.999
   171          H      9    TYR     HH    171       0.43      1.008
   172         CA      9    TYR    CD2    172     -0.115     12.011
   173         HP      9    TYR    HD2    173      0.115      1.008
   174         CA      9    TYR    CE2    174     -0.115     12.011
   175         HP      9    TYR    HE2    175      0.115      1.008
   176         CC      9    TYR      C    176       0.34     12.011
   177         OC      9    TYR    OT1    177      -0.67    15.9994
   178         OC      9    TYR    OT2    178      -0.67    15.9994   ; qtot 0

[ bonds ]
;  ai    aj funct            c0            c1            c2            c3
    1     2     1 
    1     3     1 
    1     4     1 
    1     5     1 
    5     6     1 
    5     7     1 
    5    22     1 
    7     8     1 
    7     9     1 
    7    10     1 
   10    11     1 
   10    18     1 
   11    12     1 
   11    13     1 
   13    14     1 
   13    15     1 
   15    16     1 
   15    20     1 
   16    17     1 
   18    19     1 
   18    20     1 
   20    21     1 
   22    23     1 
   22    24     1 
   24    25     1 
   24    26     1 
   26    27     1 
   26    28     1 
   26    43     1 
   28    29     1 
   28    30     1 
   28    31     1 
   31    32     1 
   31    39     1 
   32    33     1 
   32    34     1 
   34    35     1 
   34    36     1 
   36    37     1 
   36    41     1 
   37    38     1 
   39    40     1 
   39    41     1 
   41    42     1 
   43    44     1 
   43    45     1 
   45    46     1 
   45    47     1 
   47    48     1 
   47    49     1 
   47    67     1 
   49    50     1 
   49    51     1 
   49    52     1 
   52    53     1 
   52    54     1 
   52    55     1 
   55    56     1 
   55    57     1 
   55    58     1 
   58    59     1 
   58    60     1 
   60    61     1 
   60    64     1 
   61    62     1 
   61    63     1 
   64    65     1 
   64    66     1 
   67    68     1 
   67    69     1 
   69    70     1 
   69    73     1 
   70    71     1 
   70    72     1 
   70    78     1 
   73    74     1 
   73    75     1 
   73    81     1 
   75    76     1 
   75    77     1 
   75    78     1 
   78    79     1 
   78    80     1 
   81    82     1 
   81    83     1 
   83    84     1 
   83    85     1 
   85    86     1 
   85    87     1 
   85    96     1 
   87    88     1 
   87    89     1 
   87    90     1 
   90    91     1 
   90    92     1 
   90    93     1 
   93    94     1 
   93    95     1 
   96    97     1 
   96    98     1 
   98    99     1 
   98   100     1 
  100   101     1 
  100   102     1 
  100   110     1 
  102   103     1 
  102   104     1 
  102   106     1 
  104   105     1 
  106   107     1 
  106   108     1 
  106   109     1 
  110   111     1 
  110   112     1 
  112   113     1 
  112   114     1 
  114   115     1 
  114   116     1 
  114   117     1 
  117   118     1 
  117   119     1 
  119   120     1 
  119   121     1 
  121   122     1 
  121   123     1 
  121   131     1 
  123   124     1 
  123   125     1 
  123   127     1 
  125   126     1 
  127   128     1 
  127   129     1 
  127   130     1 
  131   132     1 
  131   133     1 
  133   134     1 
  133   135     1 
  135   136     1 
  135   137     1 
  135   155     1 
  137   138     1 
  137   139     1 
  137   140     1 
  140   141     1 
  140   146     1 
  141   142     1 
  141   143     1 
  143   144     1 
  143   145     1 
  145   146     1 
  145   151     1 
  146   147     1 
  147   148     1 
  147   149     1 
  149   150     1 
  149   153     1 
  151   152     1 
  151   153     1 
  153   154     1 
  155   156     1 
  155   157     1 
  157   158     1 
  157   159     1 
  159   160     1 
  159   161     1 
  159   176     1 
  161   162     1 
  161   163     1 
  161   164     1 
  164   165     1 
  164   172     1 
  165   166     1 
  165   167     1 
  167   168     1 
  167   169     1 
  169   170     1 
  169   174     1 
  170   171     1 
  172   173     1 
  172   174     1 
  174   175     1 
  176   177     1 
  176   178     1 

[ pairs ]
;  ai    aj funct            c0            c1            c2            c3
    1     8     1 
    1     9     1 
    1    10     1 
    1    23     1 
    1    24     1 
    2     6     1 
    2     7     1 
    2    22     1 
    3     6     1 
    3     7     1 
    3    22     1 
    4     6     1 
    4     7     1 
    4    22     1 
    5    11     1 
    5    18     1 
    5    25     1 
    5    26     1 
    6     8     1 
    6     9     1 
    6    10     1 
    6    23     1 
    6    24     1 
    7    12     1 
    7    13     1 
    7    19     1 
    7    20     1 
    7    23     1 
    7    24     1 
    8    11     1 
    8    18     1 
    8    22     1 
    9    11     1 
    9    18     1 
    9    22     1 
   10    14     1 
   10    15     1 
   10    21     1 
   10    22     1 
   11    16     1 
   11    19     1 
   11    20     1 
   12    14     1 
   12    15     1 
   12    18     1 
   13    17     1 
   13    18     1 
   13    21     1 
   14    16     1 
   14    20     1 
   15    19     1 
   16    18     1 
   16    21     1 
   17    20     1 
   19    21     1 
   22    27     1 
   22    28     1 
   22    43     1 
   23    25     1 
   23    26     1 
   24    29     1 
   24    30     1 
   24    31     1 
   24    44     1 
   24    45     1 
   25    27     1 
   25    28     1 
   25    43     1 
   26    32     1 
   26    39     1 
   26    46     1 
   26    47     1 
   27    29     1 
   27    30     1 
   27    31     1 
   27    44     1 
   27    45     1 
   28    33     1 
   28    34     1 
   28    40     1 
   28    41     1 
   28    44     1 
   28    45     1 
   29    32     1 
   29    39     1 
   29    43     1 
   30    32     1 
   30    39     1 
   30    43     1 
   31    35     1 
   31    36     1 
   31    42     1 
   31    43     1 
   32    37     1 
   32    40     1 
   32    41     1 
   33    35     1 
   33    36     1 
   33    39     1 
   34    38     1 
   34    39     1 
   34    42     1 
   35    37     1 
   35    41     1 
   36    40     1 
   37    39     1 
   37    42     1 
   38    41     1 
   40    42     1 
   43    48     1 
   43    49     1 
   43    67     1 
   44    46     1 
   44    47     1 
   45    50     1 
   45    51     1 
   45    52     1 
   45    68     1 
   45    69     1 
   46    48     1 
   46    49     1 
   46    67     1 
   47    53     1 
   47    54     1 
   47    55     1 
   47    70     1 
   47    73     1 
   48    50     1 
   48    51     1 
   48    52     1 
   48    68     1 
   48    69     1 
   49    56     1 
   49    57     1 
   49    58     1 
   49    68     1 
   49    69     1 
   50    53     1 
   50    54     1 
   50    55     1 
   50    67     1 
   51    53     1 
   51    54     1 
   51    55     1 
   51    67     1 
   52    59     1 
   52    60     1 
   52    67     1 
   53    56     1 
   53    57     1 
   53    58     1 
   54    56     1 
   54    57     1 
   54    58     1 
   55    61     1 
   55    64     1 
   56    59     1 
   56    60     1 
   57    59     1 
   57    60     1 
   58    62     1 
   58    63     1 
   58    65     1 
   58    66     1 
   59    61     1 
   59    64     1 
   61    65     1 
   61    66     1 
   62    64     1 
   63    64     1 
   67    71     1 
   67    72     1 
   67    74     1 
   67    75     1 
   67    78     1 
   67    81     1 
   68    70     1 
   68    73     1 
   69    76     1 
   69    77     1 
   69    79     1 
   69    80     1 
   69    82     1 
   69    83     1 
   70    74     1 
   70    76     1 
   70    77     1 
   70    81     1 
   71    73     1 
   71    75     1 
   71    79     1 
   71    80     1 
   72    73     1 
   72    75     1 
   72    79     1 
   72    80     1 
   73    79     1 
   73    80     1 
   73    84     1 
   73    85     1 
   74    76     1 
   74    77     1 
   74    78     1 
   74    82     1 
   74    83     1 
   75    82     1 
   75    83     1 
   76    79     1 
   76    80     1 
   76    81     1 
   77    79     1 
   77    80     1 
   77    81     1 
   78    81     1 
   81    86     1 
   81    87     1 
   81    96     1 
   82    84     1 
   82    85     1 
   83    88     1 
   83    89     1 
   83    90     1 
   83    97     1 
   83    98     1 
   84    86     1 
   84    87     1 
   84    96     1 
   85    91     1 
   85    92     1 
   85    93     1 
   85    99     1 
   85   100     1 
   86    88     1 
   86    89     1 
   86    90     1 
   86    97     1 
   86    98     1 
   87    94     1 
   87    95     1 
   87    97     1 
   87    98     1 
   88    91     1 
   88    92     1 
   88    93     1 
   88    96     1 
   89    91     1 
   89    92     1 
   89    93     1 
   89    96     1 
   90    96     1 
   91    94     1 
   91    95     1 
   92    94     1 
   92    95     1 
   96   101     1 
   96   102     1 
   96   110     1 
   97    99     1 
   97   100     1 
   98   103     1 
   98   104     1 
   98   106     1 
   98   111     1 
   98   112     1 
   99   101     1 
   99   102     1 
   99   110     1 
  100   105     1 
  100   107     1 
  100   108     1 
  100   109     1 
  100   113     1 
  100   114     1 
  101   103     1 
  101   104     1 
  101   106     1 
  101   111     1 
  101   112     1 
  102   111     1 
  102   112     1 
  103   105     1 
  103   107     1 
  103   108     1 
  103   109     1 
  103   110     1 
  104   107     1 
  104   108     1 
  104   109     1 
  104   110     1 
  105   106     1 
  106   110     1 
  110   115     1 
  110   116     1 
  110   117     1 
  111   113     1 
  111   114     1 
  112   118     1 
  112   119     1 
  113   115     1 
  113   116     1 
  113   117     1 
  114   120     1 
  114   121     1 
  115   118     1 
  115   119     1 
  116   118     1 
  116   119     1 
  117   122     1 
  117   123     1 
  117   131     1 
  118   120     1 
  118   121     1 
  119   124     1 
  119   125     1 
  119   127     1 
  119   132     1 
  119   133     1 
  120   122     1 
  120   123     1 
  120   131     1 
  121   126     1 
  121   128     1 
  121   129     1 
  121   130     1 
  121   134     1 
  121   135     1 
  122   124     1 
  122   125     1 
  122   127     1 
  122   132     1 
  122   133     1 
  123   132     1 
  123   133     1 
  124   126     1 
  124   128     1 
  124   129     1 
  124   130     1 
  124   131     1 
  125   128     1 
  125   129     1 
  125   130     1 
  125   131     1 
  126   127     1 
  127   131     1 
  131   136     1 
  131   137     1 
  131   155     1 
  132   134     1 
  132   135     1 
  133   138     1 
  133   139     1 
  133   140     1 
  133   156     1 
  133   157     1 
  134   136     1 
  134   137     1 
  134   155     1 
  135   141     1 
  135   146     1 
  135   158     1 
  135   159     1 
  136   138     1 
  136   139     1 
  136   140     1 
  136   156     1 
  136   157     1 
  137   142     1 
  137   143     1 
  137   145     1 
  137   147     1 
  137   156     1 
  137   157     1 
  138   141     1 
  138   146     1 
  138   155     1 
  139   141     1 
  139   146     1 
  139   155     1 
  140   144     1 
  140   148     1 
  140   149     1 
  140   151     1 
  140   155     1 
  141   147     1 
  141   151     1 
  142   144     1 
  142   145     1 
  142   146     1 
  143   147     1 
  143   152     1 
  143   153     1 
  144   146     1 
  144   151     1 
  145   148     1 
  145   149     1 
  145   154     1 
  146   150     1 
  146   152     1 
  146   153     1 
  147   151     1 
  147   154     1 
  148   150     1 
  148   153     1 
  149   152     1 
  150   151     1 
  150   154     1 
  152   154     1 
  155   160     1 
  155   161     1 
  155   176     1 
  156   158     1 
  156   159     1 
  157   162     1 
  157   163     1 
  157   164     1 
  157   177     1 
  157   178     1 
  158   160     1 
  158   161     1 
  158   176     1 
  159   165     1 
  159   172     1 
  160   162     1 
  160   163     1 
  160   164     1 
  160   177     1 
  160   178     1 
  161   166     1 
  161   167     1 
  161   173     1 
  161   174     1 
  161   177     1 
  161   178     1 
  162   165     1 
  162   172     1 
  162   176     1 
  163   165     1 
  163   172     1 
  163   176     1 
  164   168     1 
  164   169     1 
  164   175     1 
  164   176     1 
  165   170     1 
  165   173     1 
  165   174     1 
  166   168     1 
  166   169     1 
  166   172     1 
  167   171     1 
  167   172     1 
  167   175     1 
  168   170     1 
  168   174     1 
  169   173     1 
  170   172     1 
  170   175     1 
  171   174     1 
  173   175     1 

[ angles ]
;  ai    aj    ak funct            c0            c1            c2            c3
    2     1     3     5 
    2     1     4     5 
    2     1     5     5 
    3     1     4     5 
    3     1     5     5 
    4     1     5     5 
    1     5     6     5 
    1     5     7     5 
    1     5    22     5 
    6     5     7     5 
    6     5    22     5 
    7     5    22     5 
    5     7     8     5 
    5     7     9     5 
    5     7    10     5 
    8     7     9     5 
    8     7    10     5 
    9     7    10     5 
    7    10    11     5 
    7    10    18     5 
   11    10    18     5 
   10    11    12     5 
   10    11    13     5 
   12    11    13     5 
   11    13    14     5 
   11    13    15     5 
   14    13    15     5 
   13    15    16     5 
   13    15    20     5 
   16    15    20     5 
   15    16    17     5 
   10    18    19     5 
   10    18    20     5 
   19    18    20     5 
   15    20    18     5 
   15    20    21     5 
   18    20    21     5 
    5    22    23     5 
    5    22    24     5 
   23    22    24     5 
   22    24    25     5 
   22    24    26     5 
   25    24    26     5 
   24    26    27     5 
   24    26    28     5 
   24    26    43     5 
   27    26    28     5 
   27    26    43     5 
   28    26    43     5 
   26    28    29     5 
   26    28    30     5 
   26    28    31     5 
   29    28    30     5 
   29    28    31     5 
   30    28    31     5 
   28    31    32     5 
   28    31    39     5 
   32    31    39     5 
   31    32    33     5 
   31    32    34     5 
   33    32    34     5 
   32    34    35     5 
   32    34    36     5 
   35    34    36     5 
   34    36    37     5 
   34    36    41     5 
   37    36    41     5 
   36    37    38     5 
   31    39    40     5 
   31    39    41     5 
   40    39    41     5 
   36    41    39     5 
   36    41    42     5 
   39    41    42     5 
   26    43    44     5 
   26    43    45     5 
   44    43    45     5 
   43    45    46     5 
   43    45    47     5 
   46    45    47     5 
   45    47    48     5 
   45    47    49     5 
   45    47    67     5 
   48    47    49     5 
   48    47    67     5 
   49    47    67     5 
   47    49    50     5 
   47    49    51     5 
   47    49    52     5 
   50    49    51     5 
   50    49    52     5 
   51    49    52     5 
   49    52    53     5 
   49    52    54     5 
   49    52    55     5 
   53    52    54     5 
   53    52    55     5 
   54    52    55     5 
   52    55    56     5 
   52    55    57     5 
   52    55    58     5 
   56    55    57     5 
   56    55    58     5 
   57    55    58     5 
   55    58    59     5 
   55    58    60     5 
   59    58    60     5 
   58    60    61     5 
   58    60    64     5 
   61    60    64     5 
   60    61    62     5 
   60    61    63     5 
   62    61    63     5 
   60    64    65     5 
   60    64    66     5 
   65    64    66     5 
   47    67    68     5 
   47    67    69     5 
   68    67    69     5 
   67    69    70     5 
   67    69    73     5 
   70    69    73     5 
   69    70    71     5 
   69    70    72     5 
   69    70    78     5 
   71    70    72     5 
   71    70    78     5 
   72    70    78     5 
   69    73    74     5 
   69    73    75     5 
   69    73    81     5 
   74    73    75     5 
   74    73    81     5 
   75    73    81     5 
   73    75    76     5 
   73    75    77     5 
   73    75    78     5 
   76    75    77     5 
   76    75    78     5 
   77    75    78     5 
   70    78    75     5 
   70    78    79     5 
   70    78    80     5 
   75    78    79     5 
   75    78    80     5 
   79    78    80     5 
   73    81    82     5 
   73    81    83     5 
   82    81    83     5 
   81    83    84     5 
   81    83    85     5 
   84    83    85     5 
   83    85    86     5 
   83    85    87     5 
   83    85    96     5 
   86    85    87     5 
   86    85    96     5 
   87    85    96     5 
   85    87    88     5 
   85    87    89     5 
   85    87    90     5 
   88    87    89     5 
   88    87    90     5 
   89    87    90     5 
   87    90    91     5 
   87    90    92     5 
   87    90    93     5 
   91    90    92     5 
   91    90    93     5 
   92    90    93     5 
   90    93    94     5 
   90    93    95     5 
   94    93    95     5 
   85    96    97     5 
   85    96    98     5 
   97    96    98     5 
   96    98    99     5 
   96    98   100     5 
   99    98   100     5 
   98   100   101     5 
   98   100   102     5 
   98   100   110     5 
  101   100   102     5 
  101   100   110     5 
  102   100   110     5 
  100   102   103     5 
  100   102   104     5 
  100   102   106     5 
  103   102   104     5 
  103   102   106     5 
  104   102   106     5 
  102   104   105     5 
  102   106   107     5 
  102   106   108     5 
  102   106   109     5 
  107   106   108     5 
  107   106   109     5 
  108   106   109     5 
  100   110   111     5 
  100   110   112     5 
  111   110   112     5 
  110   112   113     5 
  110   112   114     5 
  113   112   114     5 
  112   114   115     5 
  112   114   116     5 
  112   114   117     5 
  115   114   116     5 
  115   114   117     5 
  116   114   117     5 
  114   117   118     5 
  114   117   119     5 
  118   117   119     5 
  117   119   120     5 
  117   119   121     5 
  120   119   121     5 
  119   121   122     5 
  119   121   123     5 
  119   121   131     5 
  122   121   123     5 
  122   121   131     5 
  123   121   131     5 
  121   123   124     5 
  121   123   125     5 
  121   123   127     5 
  124   123   125     5 
  124   123   127     5 
  125   123   127     5 
  123   125   126     5 
  123   127   128     5 
  123   127   129     5 
  123   127   130     5 
  128   127   129     5 
  128   127   130     5 
  129   127   130     5 
  121   131   132     5 
  121   131   133     5 
  132   131   133     5 
  131   133   134     5 
  131   133   135     5 
  134   133   135     5 
  133   135   136     5 
  133   135   137     5 
  133   135   155     5 
  136   135   137     5 
  136   135   155     5 
  137   135   155     5 
  135   137   138     5 
  135   137   139     5 
  135   137   140     5 
  138   137   139     5 
  138   137   140     5 
  139   137   140     5 
  137   140   141     5 
  137   140   146     5 
  141   140   146     5 
  140   141   142     5 
  140   141   143     5 
  142   141   143     5 
  141   143   144     5 
  141   143   145     5 
  144   143   145     5 
  143   145   146     5 
  143   145   151     5 
  146   145   151     5 
  140   146   145     5 
  140   146   147     5 
  145   146   147     5 
  146   147   148     5 
  146   147   149     5 
  148   147   149     5 
  147   149   150     5 
  147   149   153     5 
  150   149   153     5 
  145   151   152     5 
  145   151   153     5 
  152   151   153     5 
  149   153   151     5 
  149   153   154     5 
  151   153   154     5 
  135   155   156     5 
  135   155   157     5 
  156   155   157     5 
  155   157   158     5 
  155   157   159     5 
  158   157   159     5 
  157   159   160     5 
  157   159   161     5 
  157   159   176     5 
  160   159   161     5 
  160   159   176     5 
  161   159   176     5 
  159   161   162     5 
  159   161   163     5 
  159   161   164     5 
  162   161   163     5 
  162   161   164     5 
  163   161   164     5 
  161   164   165     5 
  161   164   172     5 
  165   164   172     5 
  164   165   166     5 
  164   165   167     5 
  166   165   167     5 
  165   167   168     5 
  165   167   169     5 
  168   167   169     5 
  167   169   170     5 
  167   169   174     5 
  170   169   174     5 
  169   170   171     5 
  164   172   173     5 
  164   172   174     5 
  173   172   174     5 
  169   174   172     5 
  169   174   175     5 
  172   174   175     5 
  159   176   177     5 
  159   176   178     5 
  177   176   178     5 

[ dihedrals ]
;  ai    aj    ak    al funct            c0            c1            c2            c3            c4            c5
    2     1     5     6     9 
    2     1     5     7     9 
    2     1     5    22     9 
    3     1     5     6     9 
    3     1     5     7     9 
    3     1     5    22     9 
    4     1     5     6     9 
    4     1     5     7     9 
    4     1     5    22     9 
    1     5     7     8     9 
    1     5     7     9     9 
    1     5     7    10     9 
    6     5     7     8     9 
    6     5     7     9     9 
    6     5     7    10     9 
   22     5     7     8     9 
   22     5     7     9     9 
   22     5     7    10     9 
    1     5    22    23     9 
    1     5    22    24     9 
    6     5    22    23     9 
    6     5    22    24     9 
    7     5    22    23     9 
    7     5    22    24     9 
    5     7    10    11     9 
    5     7    10    18     9 
    8     7    10    11     9 
    8     7    10    18     9 
    9     7    10    11     9 
    9     7    10    18     9 
    7    10    11    12     9 
    7    10    11    13     9 
   18    10    11    12     9 
   18    10    11    13     9 
    7    10    18    19     9 
    7    10    18    20     9 
   11    10    18    19     9 
   11    10    18    20     9 
   10    11    13    14     9 
   10    11    13    15     9 
   12    11    13    14     9 
   12    11    13    15     9 
   11    13    15    16     9 
   11    13    15    20     9 
   14    13    15    16     9 
   14    13    15    20     9 
   13    15    16    17     9 
   20    15    16    17     9 
   13    15    20    18     9 
   13    15    20    21     9 
   16    15    20    18     9 
   16    15    20    21     9 
   10    18    20    15     9 
   10    18    20    21     9 
   19    18    20    15     9 
   19    18    20    21     9 
    5    22    24    25     9 
    5    22    24    26     9 
   23    22    24    25     9 
   23    22    24    26     9 
   22    24    26    27     9 
   22    24    26    28     9 
   22    24    26    43     9 
   25    24    26    27     9 
   25    24    26    28     9 
   25    24    26    43     9 
   24    26    28    29     9 
   24    26    28    30     9 
   24    26    28    31     9 
   27    26    28    29     9 
   27    26    28    30     9 
   27    26    28    31     9 
   43    26    28    29     9 
   43    26    28    30     9 
   43    26    28    31     9 
   24    26    43    44     9 
   24    26    43    45     9 
   27    26    43    44     9 
   27    26    43    45     9 
   28    26    43    44     9 
   28    26    43    45     9 
   26    28    31    32     9 
   26    28    31    39     9 
   29    28    31    32     9 
   29    28    31    39     9 
   30    28    31    32     9 
   30    28    31    39     9 
   28    31    32    33     9 
   28    31    32    34     9 
   39    31    32    33     9 
   39    31    32    34     9 
   28    31    39    40     9 
   28    31    39    41     9 
   32    31    39    40     9 
   32    31    39    41     9 
   31    32    34    35     9 
   31    32    34    36     9 
   33    32    34    35     9 
   33    32    34    36     9 
   32    34    36    37     9 
   32    34    36    41     9 
   35    34    36    37     9 
   35    34    36    41     9 
   34    36    37    38     9 
   41    36    37    38     9 
   34    36    41    39     9 
   34    36    41    42     9 
   37    36    41    39     9 
   37    36    41    42     9 
   31    39    41    36     9 
   31    39    41    42     9 
   40    39    41    36     9 
   40    39    41    42     9 
   26    43    45    46     9 
   26    43    45    47     9 
   44    43    45    46     9 
   44    43    45    47     9 
   43    45    47    48     9 
   43    45    47    49     9 
   43    45    47    67     9 
   46    45    47    48     9 
   46    45    47    49     9 
   46    45    47    67     9 
   45    47    49    50     9 
   45    47    49    51     9 
   45    47    49    52     9 
   48    47    49    50     9 
   48    47    49    51     9 
   48    47    49    52     9 
   67    47    49    50     9 
   67    47    49    51     9 
   67    47    49    52     9 
   45    47    67    68     9 
   45    47    67    69     9 
   48    47    67    68     9 
   48    47    67    69     9 
   49    47    67    68     9 
   49    47    67    69     9 
   47    49    52    53     9 
   47    49    52    54     9 
   47    49    52    55     9 
   50    49    52    53     9 
   50    49    52    54     9 
   50    49    52    55     9 
   51    49    52    53     9 
   51    49    52    54     9 
   51    49    52    55     9 
   49    52    55    56     9 
   49    52    55    57     9 
   49    52    55    58     9 
   53    52    55    56     9 
   53    52    55    57     9 
   53    52    55    58     9 
   54    52    55    56     9 
   54    52    55    57     9 
   54    52    55    58     9 
   52    55    58    59     9 
   52    55    58    60     9 
   56    55    58    59     9 
   56    55    58    60     9 
   57    55    58    59     9 
   57    55    58    60     9 
   55    58    60    61     9 
   55    58    60    64     9 
   59    58    60    61     9 
   59    58    60    64     9 
   58    60    61    62     9 
   58    60    61    63     9 
   64    60    61    62     9 
   64    60    61    63     9 
   58    60    64    65     9 
   58    60    64    66     9 
   61    60    64    65     9 
   61    60    64    66     9 
   47    67    69    70     9 
   47    67    69    73     9 
   68    67    69    70     9 
   68    67    69    73     9 
   67    69    70    71     9 
   67    69    70    72     9 
   67    69    70    78     9 
   73    69    70    71     9 
   73    69    70    72     9 
   73    69    70    78     9 
   67    69    73    74     9 
   67    69    73    75     9 
   67    69    73    81     9 
   70    69    73    74     9 
   70    69    73    75     9 
   70    69    73    81     9 
   69    70    78    75     9 
   69    70    78    79     9 
   69    70    78    80     9 
   71    70    78    75     9 
   71    70    78    79     9 
   71    70    78    80     9 
   72    70    78    75     9 
   72    70    78    79     9 
   72    70    78    80     9 
   69    73    75    76     9 
   69    73    75    77     9 
   69    73    75    78     9 
   74    73    75    76     9 
   74    73    75    77     9 
   74    73    75    78     9 
   81    73    75    76     9 
   81    73    75    77     9 
   81    73    75    78     9 
   69    73    81    82     9 
   69    73    81    83     9 
   74    73    81    82     9 
   74    73    81    83     9 
   75    73    81    82     9 
   75    73    81    83     9 
   73    75    78    70     9 
   73    75    78    79     9 
   73    75    78    80     9 
   76    75    78    70     9 
   76    75    78    79     9 
   76    75    78    80     9 
   77    75    78    70     9 
   77    75    78    79     9 
   77    75    78    80     9 
   73    81    83    84     9 
   73    81    83    85     9 
   82    81    83    84     9 
   82    81    83    85     9 
   81    83    85    86     9 
   81    83    85    87     9 
   81    83    85    96     9 
   84    83    85    86     9 
   84    83    85    87     9 
   84    83    85    96     9 
   83    85    87    88     9 
   83    85    87    89     9 
   83    85    87    90     9 
   86    85    87    88     9 
   86    85    87    89     9 
   86    85    87    90     9 
   96    85    87    88     9 
   96    85    87    89     9 
   96    85    87    90     9 
   83    85    96    97     9 
   83    85    96    98     9 
   86    85    96    97     9 
   86    85    96    98     9 
   87    85    96    97     9 
   87    85    96    98     9 
   85    87    90    91     9 
   85    87    90    92     9 
   85    87    90    93     9 
   88    87    90    91     9 
   88    87    90    92     9 
   88    87    90    93     9 
   89    87    90    91     9 
   89    87    90    92     9 
   89    87    90    93     9 
   87    90    93    94     9 
   87    90    93    95     9 
   91    90    93    94     9 
   91    90    93    95     9 
   92    90    93    94     9 
   92    90    93    95     9 
   85    96    98    99     9 
   85    96    98   100     9 
   97    96    98    99     9 
   97    96    98   100     9 
   96    98   100   101     9 
   96    98   100   102     9 
   96    98   100   110     9 
   99    98   100   101     9 
   99    98   100   102     9 
   99    98   100   110     9 
   98   100   102   103     9 
   98   100   102   104     9 
   98   100   102   106     9 
  101   100   102   103     9 
  101   100   102   104     9 
  101   100   102   106     9 
  110   100   102   103     9 
  110   100   102   104     9 
  110   100   102   106     9 
   98   100   110   111     9 
   98   100   110   112     9 
  101   100   110   111     9 
  101   100   110   112     9 
  102   100   110   111     9 
  102   100   110   112     9 
  100   102   104   105     9 
  103   102   104   105     9 
  106   102   104   105     9 
  100   102   106   107     9 
  100   102   106   108     9 
  100   102   106   109     9 
  103   102   106   107     9 
  103   102   106   108     9 
  103   102   106   109     9 
  104   102   106   107     9 
  104   102   106   108     9 
  104   102   106   109     9 
  100   110   112   113     9 
  100   110   112   114     9 
  111   110   112   113     9 
  111   110   112   114     9 
  110   112   114   115     9 
  110   112   114   116     9 
  110   112   114   117     9 
  113   112   114   115     9 
  113   112   114   116     9 
  113   112   114   117     9 
  112   114   117   118     9 
  112   114   117   119     9 
  115   114   117   118     9 
  115   114   117   119     9 
  116   114   117   118     9 
  116   114   117   119     9 
  114   117   119   120     9 
  114   117   119   121     9 
  118   117   119   120     9 
  118   117   119   121     9 
  117   119   121   122     9 
  117   119   121   123     9 
  117   119   121   131     9 
  120   119   121   122     9 
  120   119   121   123     9 
  120   119   121   131     9 
  119   121   123   124     9 
  119   121   123   125     9 
  119   121   123   127     9 
  122   121   123   124     9 
  122   121   123   125     9 
  122   121   123   127     9 
  131   121   123   124     9 
  131   121   123   125     9 
  131   121   123   127     9 
  119   121   131   132     9 
  119   121   131   133     9 
  122   121   131   132     9 
  122   121   131   133     9 
  123   121   131   132     9 
  123   121   131   133     9 
  121   123   125   126     9 
  124   123   125   126     9 
  127   123   125   126     9 
  121   123   127   128     9 
  121   123   127   129     9 
  121   123   127   130     9 
  124   123   127   128     9 
  124   123   127   129     9 
  124   123   127   130     9 
  125   123   127   128     9 
  125   123   127   129     9 
  125   123   127   130     9 
  121   131   133   134     9 
  121   131   133   135     9 
  132   131   133   134     9 
  132   131   133   135     9 
  131   133   135   136     9 
  131   133   135   137     9 
  131   133   135   155     9 
  134   133   135   136     9 
  134   133   135   137     9 
  134   133   135   155     9 
  133   135   137   138     9 
  133   135   137   139     9 
  133   135   137   140     9 
  136   135   137   138     9 
  136   135   137   139     9 
  136   135   137   140     9 
  155   135   137   138     9 
  155   135   137   139     9 
  155   135   137   140     9 
  133   135   155   156     9 
  133   135   155   157     9 
  136   135   155   156     9 
  136   135   155   157     9 
  137   135   155   156     9 
  137   135   155   157     9 
  135   137   140   141     9 
  135   137   140   146     9 
  138   137   140   141     9 
  138   137   140   146     9 
  139   137   140   141     9 
  139   137   140   146     9 
  137   140   141   142     9 
  137   140   141   143     9 
  146   140   141   142     9 
  146   140   141   143     9 
  137   140   146   145     9 
  137   140   146   147     9 
  141   140   146   145     9 
  141   140   146   147     9 
  140   141   143   144     9 
  140   141   143   145     9 
  142   141   143   144     9 
  142   141   143   145     9 
  141   143   145   146     9 
  141   143   145   151     9 
  144   143   145   146     9 
  144   143   145   151     9 
  143   145   146   140     9 
  143   145   146   147     9 
  151   145   146   140     9 
  151   145   146   147     9 
  143   145   151   152     9 
  143   145   151   153     9 
  146   145   151   152     9 
  146   145   151   153     9 
  140   146   147   148     9 
  140   146   147   149     9 
  145   146   147   148     9 
  145   146   147   149     9 
  146   147   149   150     9 
  146   147   149   153     9 
  148   147   149   150     9 
  148   147   149   153     9 
  147   149   153   151     9 
  147   149   153   154     9 
  150   149   153   151     9 
  150   149   153   154     9 
  145   151   153   149     9 
  145   151   153   154     9 
  152   151   153   149     9 
  152   151   153   154     9 
  135   155   157   158     9 
  135   155   157   159     9 
  156   155   157   158     9 
  156   155   157   159     9 
  155   157   159   160     9 
  155   157   159   161     9 
  155   157   159   176     9 
  158   157   159   160     9 
  158   157   159   161     9 
  158   157   159   176     9 
  157   159   161   162     9 
  157   159   161   163     9 
  157   159   161   164     9 
  160   159   161   162     9 
  160   159   161   163     9 
  160   159   161   164     9 
  176   159   161   162     9 
  176   159   161   163     9 
  176   159   161   164     9 
  157   159   176   177     9 
  157   159   176   178     9 
  160   159   176   177     9 
  160   159   176   178     9 
  161   159   176   177     9 
  161   159   176   178     9 
  159   161   164   165     9 
  159   161   164   172     9 
  162   161   164   165     9 
  162   161   164   172     9 
  163   161   164   165     9 
  163   161   164   172     9 
  161   164   165   166     9 
  161   164   165   167     9 
  172   164   165   166     9 
  172   164   165   167     9 
  161   164   172   173     9 
  161   164   172   174     9 
  165   164   172   173     9 
  165   164   172   174     9 
  164   165   167   168     9 
  164   165   167   169     9 
  166   165   167   168     9 
  166   165   167   169     9 
  165   167   169   170     9 
  165   167   169   174     9 
  168   167   169   170     9 
  168   167   169   174     9 
  167   169   170   171     9 
  174   169   170   171     9 
  167   169   174   172     9 
  167   169   174   175     9 
  170   169   174   172     9 
  170   169   174   175     9 
  164   172   174   169     9 
  164   172   174   175     9 
  173   172   174   169     9 
  173   172   174   175     9 

[ dihedrals ]
;  ai    aj    ak    al funct            c0            c1            c2            c3
   22     5    24    23     2 
   24    22    26    25     2 
   43    26    45    44     2 
   45    43    47    46     2 
   58    64    61    60     2 
   67    47    69    68     2 
   69    67    73    70     2 
   81    73    83    82     2 
   83    81    85    84     2 
   93    90    95    94     2 
   96    85    98    97     2 
   98    96   100    99     2 
  110   100   112   111     2 
  112   110   114   113     2 
  117   114   119   118     2 
  119   117   121   120     2 
  131   121   133   132     2 
  133   131   135   134     2 
  155   135   157   156     2 
  157   155   159   158     2 
  176   159   178   177     2 

[ cmap ]
;  ai    aj    ak    al    am funct
   67    69    73    81    83     1 
  110   112   114   117   119     1 

; Include Position restraint file
#ifdef POSRES
#include "posre.itp"
#endif

; Include water topology
#include "charmm22star.ff/tip3p.itp"

#ifdef POSRES_WATER
; Position restraint for each water oxygen
[ position_restraints ]
;  i funct       fcx        fcy        fcz
   1    1       1000       1000       1000
#endif

; Include topology for ions
#include "charmm22star.ff/ions.itp"

[ system ]
; Name
Protein in water

[ molecules ]
; Compound        #mols
Protein_chain_A     1
SOL              1754
