;
;	File 'topol.top' was generated
;	By user: muralika.m (21947)
;	On host: zeus
;	At date: Mon Apr 14 19:42:24 2025
;
;	This is a standalone topology file
;
;	Created by:
;	                    :-) GROMACS - gmx pdb2gmx, 2019.6 (-:
;	
;	Executable:   /home/muralika.m/.conda/envs/muralika/bin/gmx_mpi
;	Data prefix:  /home/muralika.m/.conda/envs/muralika
;	Working dir:  /rg/mendels_prj/muralika.m/ub/New_mutns/YYYPETGTWY
;	Command line:
;	  gmx_mpi pdb2gmx -f YYYPETGTWY.pdb -o processed_structure.gro -p topol.top -asp -glu -ter
;	Force field was read from the standard GROMACS share directory.
;

; Include forcefield parameters
#include "charmm22star.ff/forcefield.itp"

[ moleculetype ]
; Name            nrexcl
Protein_chain_A     3

[ atoms ]
;   nr       type  resnr residue  atom   cgnr     charge       mass  typeB    chargeB      massB
; residue   0 TYR rtp TYR  q +1.0
     1        NH3      0    TYR      N      1       -0.3    14.0027
     2         HC      0    TYR     H1      2       0.33      1.008
     3         HC      0    TYR     H2      3       0.33      1.008
     4         HC      0    TYR     H3      4       0.33      1.008
     5        CT1      0    TYR     CA      5       0.21     12.011
     6         HB      0    TYR     HA      6        0.1      1.008
     7        CT2      0    TYR     CB      7      -0.18     12.011
     8         HA      0    TYR    HB1      8       0.09      1.008
     9         HA      0    TYR    HB2      9       0.09      1.008
    10         CA      0    TYR     CG     10          0     12.011
    11         CA      0    TYR    CD1     11     -0.115     12.011
    12         HP      0    TYR    HD1     12      0.115      1.008
    13         CA      0    TYR    CE1     13     -0.115     12.011
    14         HP      0    TYR    HE1     14      0.115      1.008
    15         CA      0    TYR     CZ     15       0.11     12.011
    16        OH1      0    TYR     OH     16      -0.54     15.999
    17          H      0    TYR     HH     17       0.43      1.008
    18         CA      0    TYR    CD2     18     -0.115     12.011
    19         HP      0    TYR    HD2     19      0.115      1.008
    20         CA      0    TYR    CE2     20     -0.115     12.011
    21         HP      0    TYR    HE2     21      0.115      1.008
    22          C      0    TYR      C     22       0.51     12.011
    23          O      0    TYR      O     23      -0.51     15.999   ; qtot 1
; residue   1 TYR rtp TYR  q  0.0
    24        NH1      1    TYR      N     24      -0.47     14.007
    25          H      1    TYR     HN     25       0.31      1.008
    26        CT1      1    TYR     CA     26       0.07     12.011
    27         HB      1    TYR     HA     27       0.09      1.008
    28        CT2      1    TYR     CB     28      -0.18     12.011
    29         HA      1    TYR    HB1     29       0.09      1.008
    30         HA      1    TYR    HB2     30       0.09      1.008
    31         CA      1    TYR     CG     31          0     12.011
    32         CA      1    TYR    CD1     32     -0.115     12.011
    33         HP      1    TYR    HD1     33      0.115      1.008
    34         CA      1    TYR    CE1     34     -0.115     12.011
    35         HP      1    TYR    HE1     35      0.115      1.008
    36         CA      1    TYR     CZ     36       0.11     12.011
    37        OH1      1    TYR     OH     37      -0.54     15.999
    38          H      1    TYR     HH     38       0.43      1.008
    39         CA      1    TYR    CD2     39     -0.115     12.011
    40         HP      1    TYR    HD2     40      0.115      1.008
    41         CA      1    TYR    CE2     41     -0.115     12.011
    42         HP      1    TYR    HE2     42      0.115      1.008
    43          C      1    TYR      C     43       0.51     12.011
    44          O      1    TYR      O     44      -0.51     15.999   ; qtot 1
; residue   2 TYR rtp TYR  q  0.0
    45        NH1      2    TYR      N     45      -0.47     14.007
    46          H      2    TYR     HN     46       0.31      1.008
    47        CT1      2    TYR     CA     47       0.07     12.011
    48         HB      2    TYR     HA     48       0.09      1.008
    49        CT2      2    TYR     CB     49      -0.18     12.011
    50         HA      2    TYR    HB1     50       0.09      1.008
    51         HA      2    TYR    HB2     51       0.09      1.008
    52         CA      2    TYR     CG     52          0     12.011
    53         CA      2    TYR    CD1     53     -0.115     12.011
    54         HP      2    TYR    HD1     54      0.115      1.008
    55         CA      2    TYR    CE1     55     -0.115     12.011
    56         HP      2    TYR    HE1     56      0.115      1.008
    57         CA      2    TYR     CZ     57       0.11     12.011
    58        OH1      2    TYR     OH     58      -0.54     15.999
    59          H      2    TYR     HH     59       0.43      1.008
    60         CA      2    TYR    CD2     60     -0.115     12.011
    61         HP      2    TYR    HD2     61      0.115      1.008
    62         CA      2    TYR    CE2     62     -0.115     12.011
    63         HP      2    TYR    HE2     63      0.115      1.008
    64          C      2    TYR      C     64       0.51     12.011
    65          O      2    TYR      O     65      -0.51     15.999   ; qtot 1
; residue   3 PRO rtp PRO  q  0.0
    66          N      3    PRO      N     66      -0.29     14.007
    67        CP3      3    PRO     CD     67          0     12.011
    68         HA      3    PRO    HD1     68       0.09      1.008
    69         HA      3    PRO    HD2     69       0.09      1.008
    70        CP1      3    PRO     CA     70       0.02     12.011
    71         HB      3    PRO     HA     71       0.09      1.008
    72        CP2      3    PRO     CB     72      -0.18     12.011
    73         HA      3    PRO    HB1     73       0.09      1.008
    74         HA      3    PRO    HB2     74       0.09      1.008
    75        CP2      3    PRO     CG     75      -0.18     12.011
    76         HA      3    PRO    HG1     76       0.09      1.008
    77         HA      3    PRO    HG2     77       0.09      1.008
    78          C      3    PRO      C     78       0.51     12.011
    79          O      3    PRO      O     79      -0.51     15.999   ; qtot 1
; residue   4 GLU rtp GLU  q -1.0
    80        NH1      4    GLU      N     80      -0.47     14.007
    81          H      4    GLU     HN     81       0.31      1.008
    82        CT1      4    GLU     CA     82       0.07     12.011
    83         HB      4    GLU     HA     83       0.09      1.008
    84        CT2      4    GLU     CB     84      -0.18     12.011
    85         HA      4    GLU    HB1     85       0.09      1.008
    86         HA      4    GLU    HB2     86       0.09      1.008
    87        CT2      4    GLU     CG     87      -0.28     12.011
    88         HA      4    GLU    HG1     88       0.05      1.008
    89         HA      4    GLU    HG2     89       0.05      1.008
    90         CC      4    GLU     CD     90       0.56     12.011
    91         OC      4    GLU    OE1     91      -0.69     15.999
    92         OC      4    GLU    OE2     92      -0.69     15.999
    93          C      4    GLU      C     93       0.51     12.011
    94          O      4    GLU      O     94      -0.51     15.999   ; qtot 0
; residue   5 THR rtp THR  q  0.0
    95        NH1      5    THR      N     95      -0.47     14.007
    96          H      5    THR     HN     96       0.31      1.008
    97        CT1      5    THR     CA     97       0.07     12.011
    98         HB      5    THR     HA     98       0.09      1.008
    99        CT1      5    THR     CB     99       0.14     12.011
   100         HA      5    THR     HB    100       0.09      1.008
   101        OH1      5    THR    OG1    101      -0.66     15.999
   102          H      5    THR    HG1    102       0.43      1.008
   103        CT3      5    THR    CG2    103      -0.27     12.011
   104         HA      5    THR   HG21    104       0.09      1.008
   105         HA      5    THR   HG22    105       0.09      1.008
   106         HA      5    THR   HG23    106       0.09      1.008
   107          C      5    THR      C    107       0.51     12.011
   108          O      5    THR      O    108      -0.51     15.999   ; qtot 0
; residue   6 GLY rtp GLY  q  0.0
   109        NH1      6    GLY      N    109      -0.47     14.007
   110          H      6    GLY     HN    110       0.31      1.008
   111        CT2      6    GLY     CA    111      -0.02     12.011
   112         HB      6    GLY    HA1    112       0.09      1.008
   113         HB      6    GLY    HA2    113       0.09      1.008
   114          C      6    GLY      C    114       0.51     12.011
   115          O      6    GLY      O    115      -0.51     15.999   ; qtot 0
; residue   7 THR rtp THR  q  0.0
   116        NH1      7    THR      N    116      -0.47     14.007
   117          H      7    THR     HN    117       0.31      1.008
   118        CT1      7    THR     CA    118       0.07     12.011
   119         HB      7    THR     HA    119       0.09      1.008
   120        CT1      7    THR     CB    120       0.14     12.011
   121         HA      7    THR     HB    121       0.09      1.008
   122        OH1      7    THR    OG1    122      -0.66     15.999
   123          H      7    THR    HG1    123       0.43      1.008
   124        CT3      7    THR    CG2    124      -0.27     12.011
   125         HA      7    THR   HG21    125       0.09      1.008
   126         HA      7    THR   HG22    126       0.09      1.008
   127         HA      7    THR   HG23    127       0.09      1.008
   128          C      7    THR      C    128       0.51     12.011
   129          O      7    THR      O    129      -0.51     15.999   ; qtot 0
; residue   8 TRP rtp TRP  q  0.0
   130        NH1      8    TRP      N    130      -0.47     14.007
   131          H      8    TRP     HN    131       0.31      1.008
   132        CT1      8    TRP     CA    132       0.07     12.011
   133         HB      8    TRP     HA    133       0.09      1.008
   134        CT2      8    TRP     CB    134      -0.18     12.011
   135         HA      8    TRP    HB1    135       0.09      1.008
   136         HA      8    TRP    HB2    136       0.09      1.008
   137         CY      8    TRP     CG    137      -0.03     12.011
   138         CA      8    TRP    CD1    138      0.035     12.011
   139         HP      8    TRP    HD1    139      0.115      1.008
   140         NY      8    TRP    NE1    140      -0.61     14.007
   141          H      8    TRP    HE1    141       0.38      1.008
   142        CPT      8    TRP    CE2    142       0.13     12.011
   143        CPT      8    TRP    CD2    143      -0.02     12.011
   144         CA      8    TRP    CE3    144     -0.115     12.011
   145         HP      8    TRP    HE3    145      0.115      1.008
   146         CA      8    TRP    CZ3    146     -0.115     12.011
   147         HP      8    TRP    HZ3    147      0.115      1.008
   148         CA      8    TRP    CZ2    148     -0.115     12.011
   149         HP      8    TRP    HZ2    149      0.115      1.008
   150         CA      8    TRP    CH2    150     -0.115     12.011
   151         HP      8    TRP    HH2    151      0.115      1.008
   152          C      8    TRP      C    152       0.51     12.011
   153          O      8    TRP      O    153      -0.51     15.999   ; qtot 0
; residue   9 TYR rtp TYR  q -1.0
   154        NH1      9    TYR      N    154      -0.47     14.007
   155          H      9    TYR     HN    155       0.31      1.008
   156        CT1      9    TYR     CA    156       0.07     12.011
   157         HB      9    TYR     HA    157       0.09      1.008
   158        CT2      9    TYR     CB    158      -0.18     12.011
   159         HA      9    TYR    HB1    159       0.09      1.008
   160         HA      9    TYR    HB2    160       0.09      1.008
   161         CA      9    TYR     CG    161          0     12.011
   162         CA      9    TYR    CD1    162     -0.115     12.011
   163         HP      9    TYR    HD1    163      0.115      1.008
   164         CA      9    TYR    CE1    164     -0.115     12.011
   165         HP      9    TYR    HE1    165      0.115      1.008
   166         CA      9    TYR     CZ    166       0.11     12.011
   167        OH1      9    TYR     OH    167      -0.54     15.999
   168          H      9    TYR     HH    168       0.43      1.008
   169         CA      9    TYR    CD2    169     -0.115     12.011
   170         HP      9    TYR    HD2    170      0.115      1.008
   171         CA      9    TYR    CE2    171     -0.115     12.011
   172         HP      9    TYR    HE2    172      0.115      1.008
   173         CC      9    TYR      C    173       0.34     12.011
   174         OC      9    TYR    OT1    174      -0.67    15.9994
   175         OC      9    TYR    OT2    175      -0.67    15.9994   ; qtot -1

[ bonds ]
;  ai    aj funct            c0            c1            c2            c3
    1     2     1 
    1     3     1 
    1     4     1 
    1     5     1 
    5     6     1 
    5     7     1 
    5    22     1 
    7     8     1 
    7     9     1 
    7    10     1 
   10    11     1 
   10    18     1 
   11    12     1 
   11    13     1 
   13    14     1 
   13    15     1 
   15    16     1 
   15    20     1 
   16    17     1 
   18    19     1 
   18    20     1 
   20    21     1 
   22    23     1 
   22    24     1 
   24    25     1 
   24    26     1 
   26    27     1 
   26    28     1 
   26    43     1 
   28    29     1 
   28    30     1 
   28    31     1 
   31    32     1 
   31    39     1 
   32    33     1 
   32    34     1 
   34    35     1 
   34    36     1 
   36    37     1 
   36    41     1 
   37    38     1 
   39    40     1 
   39    41     1 
   41    42     1 
   43    44     1 
   43    45     1 
   45    46     1 
   45    47     1 
   47    48     1 
   47    49     1 
   47    64     1 
   49    50     1 
   49    51     1 
   49    52     1 
   52    53     1 
   52    60     1 
   53    54     1 
   53    55     1 
   55    56     1 
   55    57     1 
   57    58     1 
   57    62     1 
   58    59     1 
   60    61     1 
   60    62     1 
   62    63     1 
   64    65     1 
   64    66     1 
   66    67     1 
   66    70     1 
   67    68     1 
   67    69     1 
   67    75     1 
   70    71     1 
   70    72     1 
   70    78     1 
   72    73     1 
   72    74     1 
   72    75     1 
   75    76     1 
   75    77     1 
   78    79     1 
   78    80     1 
   80    81     1 
   80    82     1 
   82    83     1 
   82    84     1 
   82    93     1 
   84    85     1 
   84    86     1 
   84    87     1 
   87    88     1 
   87    89     1 
   87    90     1 
   90    91     1 
   90    92     1 
   93    94     1 
   93    95     1 
   95    96     1 
   95    97     1 
   97    98     1 
   97    99     1 
   97   107     1 
   99   100     1 
   99   101     1 
   99   103     1 
  101   102     1 
  103   104     1 
  103   105     1 
  103   106     1 
  107   108     1 
  107   109     1 
  109   110     1 
  109   111     1 
  111   112     1 
  111   113     1 
  111   114     1 
  114   115     1 
  114   116     1 
  116   117     1 
  116   118     1 
  118   119     1 
  118   120     1 
  118   128     1 
  120   121     1 
  120   122     1 
  120   124     1 
  122   123     1 
  124   125     1 
  124   126     1 
  124   127     1 
  128   129     1 
  128   130     1 
  130   131     1 
  130   132     1 
  132   133     1 
  132   134     1 
  132   152     1 
  134   135     1 
  134   136     1 
  134   137     1 
  137   138     1 
  137   143     1 
  138   139     1 
  138   140     1 
  140   141     1 
  140   142     1 
  142   143     1 
  142   148     1 
  143   144     1 
  144   145     1 
  144   146     1 
  146   147     1 
  146   150     1 
  148   149     1 
  148   150     1 
  150   151     1 
  152   153     1 
  152   154     1 
  154   155     1 
  154   156     1 
  156   157     1 
  156   158     1 
  156   173     1 
  158   159     1 
  158   160     1 
  158   161     1 
  161   162     1 
  161   169     1 
  162   163     1 
  162   164     1 
  164   165     1 
  164   166     1 
  166   167     1 
  166   171     1 
  167   168     1 
  169   170     1 
  169   171     1 
  171   172     1 
  173   174     1 
  173   175     1 

[ pairs ]
;  ai    aj funct            c0            c1            c2            c3
    1     8     1 
    1     9     1 
    1    10     1 
    1    23     1 
    1    24     1 
    2     6     1 
    2     7     1 
    2    22     1 
    3     6     1 
    3     7     1 
    3    22     1 
    4     6     1 
    4     7     1 
    4    22     1 
    5    11     1 
    5    18     1 
    5    25     1 
    5    26     1 
    6     8     1 
    6     9     1 
    6    10     1 
    6    23     1 
    6    24     1 
    7    12     1 
    7    13     1 
    7    19     1 
    7    20     1 
    7    23     1 
    7    24     1 
    8    11     1 
    8    18     1 
    8    22     1 
    9    11     1 
    9    18     1 
    9    22     1 
   10    14     1 
   10    15     1 
   10    21     1 
   10    22     1 
   11    16     1 
   11    19     1 
   11    20     1 
   12    14     1 
   12    15     1 
   12    18     1 
   13    17     1 
   13    18     1 
   13    21     1 
   14    16     1 
   14    20     1 
   15    19     1 
   16    18     1 
   16    21     1 
   17    20     1 
   19    21     1 
   22    27     1 
   22    28     1 
   22    43     1 
   23    25     1 
   23    26     1 
   24    29     1 
   24    30     1 
   24    31     1 
   24    44     1 
   24    45     1 
   25    27     1 
   25    28     1 
   25    43     1 
   26    32     1 
   26    39     1 
   26    46     1 
   26    47     1 
   27    29     1 
   27    30     1 
   27    31     1 
   27    44     1 
   27    45     1 
   28    33     1 
   28    34     1 
   28    40     1 
   28    41     1 
   28    44     1 
   28    45     1 
   29    32     1 
   29    39     1 
   29    43     1 
   30    32     1 
   30    39     1 
   30    43     1 
   31    35     1 
   31    36     1 
   31    42     1 
   31    43     1 
   32    37     1 
   32    40     1 
   32    41     1 
   33    35     1 
   33    36     1 
   33    39     1 
   34    38     1 
   34    39     1 
   34    42     1 
   35    37     1 
   35    41     1 
   36    40     1 
   37    39     1 
   37    42     1 
   38    41     1 
   40    42     1 
   43    48     1 
   43    49     1 
   43    64     1 
   44    46     1 
   44    47     1 
   45    50     1 
   45    51     1 
   45    52     1 
   45    65     1 
   45    66     1 
   46    48     1 
   46    49     1 
   46    64     1 
   47    53     1 
   47    60     1 
   47    67     1 
   47    70     1 
   48    50     1 
   48    51     1 
   48    52     1 
   48    65     1 
   48    66     1 
   49    54     1 
   49    55     1 
   49    61     1 
   49    62     1 
   49    65     1 
   49    66     1 
   50    53     1 
   50    60     1 
   50    64     1 
   51    53     1 
   51    60     1 
   51    64     1 
   52    56     1 
   52    57     1 
   52    63     1 
   52    64     1 
   53    58     1 
   53    61     1 
   53    62     1 
   54    56     1 
   54    57     1 
   54    60     1 
   55    59     1 
   55    60     1 
   55    63     1 
   56    58     1 
   56    62     1 
   57    61     1 
   58    60     1 
   58    63     1 
   59    62     1 
   61    63     1 
   64    68     1 
   64    69     1 
   64    71     1 
   64    72     1 
   64    75     1 
   64    78     1 
   65    67     1 
   65    70     1 
   66    73     1 
   66    74     1 
   66    76     1 
   66    77     1 
   66    79     1 
   66    80     1 
   67    71     1 
   67    73     1 
   67    74     1 
   67    78     1 
   68    70     1 
   68    72     1 
   68    76     1 
   68    77     1 
   69    70     1 
   69    72     1 
   69    76     1 
   69    77     1 
   70    76     1 
   70    77     1 
   70    81     1 
   70    82     1 
   71    73     1 
   71    74     1 
   71    75     1 
   71    79     1 
   71    80     1 
   72    79     1 
   72    80     1 
   73    76     1 
   73    77     1 
   73    78     1 
   74    76     1 
   74    77     1 
   74    78     1 
   75    78     1 
   78    83     1 
   78    84     1 
   78    93     1 
   79    81     1 
   79    82     1 
   80    85     1 
   80    86     1 
   80    87     1 
   80    94     1 
   80    95     1 
   81    83     1 
   81    84     1 
   81    93     1 
   82    88     1 
   82    89     1 
   82    90     1 
   82    96     1 
   82    97     1 
   83    85     1 
   83    86     1 
   83    87     1 
   83    94     1 
   83    95     1 
   84    91     1 
   84    92     1 
   84    94     1 
   84    95     1 
   85    88     1 
   85    89     1 
   85    90     1 
   85    93     1 
   86    88     1 
   86    89     1 
   86    90     1 
   86    93     1 
   87    93     1 
   88    91     1 
   88    92     1 
   89    91     1 
   89    92     1 
   93    98     1 
   93    99     1 
   93   107     1 
   94    96     1 
   94    97     1 
   95   100     1 
   95   101     1 
   95   103     1 
   95   108     1 
   95   109     1 
   96    98     1 
   96    99     1 
   96   107     1 
   97   102     1 
   97   104     1 
   97   105     1 
   97   106     1 
   97   110     1 
   97   111     1 
   98   100     1 
   98   101     1 
   98   103     1 
   98   108     1 
   98   109     1 
   99   108     1 
   99   109     1 
  100   102     1 
  100   104     1 
  100   105     1 
  100   106     1 
  100   107     1 
  101   104     1 
  101   105     1 
  101   106     1 
  101   107     1 
  102   103     1 
  103   107     1 
  107   112     1 
  107   113     1 
  107   114     1 
  108   110     1 
  108   111     1 
  109   115     1 
  109   116     1 
  110   112     1 
  110   113     1 
  110   114     1 
  111   117     1 
  111   118     1 
  112   115     1 
  112   116     1 
  113   115     1 
  113   116     1 
  114   119     1 
  114   120     1 
  114   128     1 
  115   117     1 
  115   118     1 
  116   121     1 
  116   122     1 
  116   124     1 
  116   129     1 
  116   130     1 
  117   119     1 
  117   120     1 
  117   128     1 
  118   123     1 
  118   125     1 
  118   126     1 
  118   127     1 
  118   131     1 
  118   132     1 
  119   121     1 
  119   122     1 
  119   124     1 
  119   129     1 
  119   130     1 
  120   129     1 
  120   130     1 
  121   123     1 
  121   125     1 
  121   126     1 
  121   127     1 
  121   128     1 
  122   125     1 
  122   126     1 
  122   127     1 
  122   128     1 
  123   124     1 
  124   128     1 
  128   133     1 
  128   134     1 
  128   152     1 
  129   131     1 
  129   132     1 
  130   135     1 
  130   136     1 
  130   137     1 
  130   153     1 
  130   154     1 
  131   133     1 
  131   134     1 
  131   152     1 
  132   138     1 
  132   143     1 
  132   155     1 
  132   156     1 
  133   135     1 
  133   136     1 
  133   137     1 
  133   153     1 
  133   154     1 
  134   139     1 
  134   140     1 
  134   142     1 
  134   144     1 
  134   153     1 
  134   154     1 
  135   138     1 
  135   143     1 
  135   152     1 
  136   138     1 
  136   143     1 
  136   152     1 
  137   141     1 
  137   145     1 
  137   146     1 
  137   148     1 
  137   152     1 
  138   144     1 
  138   148     1 
  139   141     1 
  139   142     1 
  139   143     1 
  140   144     1 
  140   149     1 
  140   150     1 
  141   143     1 
  141   148     1 
  142   145     1 
  142   146     1 
  142   151     1 
  143   147     1 
  143   149     1 
  143   150     1 
  144   148     1 
  144   151     1 
  145   147     1 
  145   150     1 
  146   149     1 
  147   148     1 
  147   151     1 
  149   151     1 
  152   157     1 
  152   158     1 
  152   173     1 
  153   155     1 
  153   156     1 
  154   159     1 
  154   160     1 
  154   161     1 
  154   174     1 
  154   175     1 
  155   157     1 
  155   158     1 
  155   173     1 
  156   162     1 
  156   169     1 
  157   159     1 
  157   160     1 
  157   161     1 
  157   174     1 
  157   175     1 
  158   163     1 
  158   164     1 
  158   170     1 
  158   171     1 
  158   174     1 
  158   175     1 
  159   162     1 
  159   169     1 
  159   173     1 
  160   162     1 
  160   169     1 
  160   173     1 
  161   165     1 
  161   166     1 
  161   172     1 
  161   173     1 
  162   167     1 
  162   170     1 
  162   171     1 
  163   165     1 
  163   166     1 
  163   169     1 
  164   168     1 
  164   169     1 
  164   172     1 
  165   167     1 
  165   171     1 
  166   170     1 
  167   169     1 
  167   172     1 
  168   171     1 
  170   172     1 

[ angles ]
;  ai    aj    ak funct            c0            c1            c2            c3
    2     1     3     5 
    2     1     4     5 
    2     1     5     5 
    3     1     4     5 
    3     1     5     5 
    4     1     5     5 
    1     5     6     5 
    1     5     7     5 
    1     5    22     5 
    6     5     7     5 
    6     5    22     5 
    7     5    22     5 
    5     7     8     5 
    5     7     9     5 
    5     7    10     5 
    8     7     9     5 
    8     7    10     5 
    9     7    10     5 
    7    10    11     5 
    7    10    18     5 
   11    10    18     5 
   10    11    12     5 
   10    11    13     5 
   12    11    13     5 
   11    13    14     5 
   11    13    15     5 
   14    13    15     5 
   13    15    16     5 
   13    15    20     5 
   16    15    20     5 
   15    16    17     5 
   10    18    19     5 
   10    18    20     5 
   19    18    20     5 
   15    20    18     5 
   15    20    21     5 
   18    20    21     5 
    5    22    23     5 
    5    22    24     5 
   23    22    24     5 
   22    24    25     5 
   22    24    26     5 
   25    24    26     5 
   24    26    27     5 
   24    26    28     5 
   24    26    43     5 
   27    26    28     5 
   27    26    43     5 
   28    26    43     5 
   26    28    29     5 
   26    28    30     5 
   26    28    31     5 
   29    28    30     5 
   29    28    31     5 
   30    28    31     5 
   28    31    32     5 
   28    31    39     5 
   32    31    39     5 
   31    32    33     5 
   31    32    34     5 
   33    32    34     5 
   32    34    35     5 
   32    34    36     5 
   35    34    36     5 
   34    36    37     5 
   34    36    41     5 
   37    36    41     5 
   36    37    38     5 
   31    39    40     5 
   31    39    41     5 
   40    39    41     5 
   36    41    39     5 
   36    41    42     5 
   39    41    42     5 
   26    43    44     5 
   26    43    45     5 
   44    43    45     5 
   43    45    46     5 
   43    45    47     5 
   46    45    47     5 
   45    47    48     5 
   45    47    49     5 
   45    47    64     5 
   48    47    49     5 
   48    47    64     5 
   49    47    64     5 
   47    49    50     5 
   47    49    51     5 
   47    49    52     5 
   50    49    51     5 
   50    49    52     5 
   51    49    52     5 
   49    52    53     5 
   49    52    60     5 
   53    52    60     5 
   52    53    54     5 
   52    53    55     5 
   54    53    55     5 
   53    55    56     5 
   53    55    57     5 
   56    55    57     5 
   55    57    58     5 
   55    57    62     5 
   58    57    62     5 
   57    58    59     5 
   52    60    61     5 
   52    60    62     5 
   61    60    62     5 
   57    62    60     5 
   57    62    63     5 
   60    62    63     5 
   47    64    65     5 
   47    64    66     5 
   65    64    66     5 
   64    66    67     5 
   64    66    70     5 
   67    66    70     5 
   66    67    68     5 
   66    67    69     5 
   66    67    75     5 
   68    67    69     5 
   68    67    75     5 
   69    67    75     5 
   66    70    71     5 
   66    70    72     5 
   66    70    78     5 
   71    70    72     5 
   71    70    78     5 
   72    70    78     5 
   70    72    73     5 
   70    72    74     5 
   70    72    75     5 
   73    72    74     5 
   73    72    75     5 
   74    72    75     5 
   67    75    72     5 
   67    75    76     5 
   67    75    77     5 
   72    75    76     5 
   72    75    77     5 
   76    75    77     5 
   70    78    79     5 
   70    78    80     5 
   79    78    80     5 
   78    80    81     5 
   78    80    82     5 
   81    80    82     5 
   80    82    83     5 
   80    82    84     5 
   80    82    93     5 
   83    82    84     5 
   83    82    93     5 
   84    82    93     5 
   82    84    85     5 
   82    84    86     5 
   82    84    87     5 
   85    84    86     5 
   85    84    87     5 
   86    84    87     5 
   84    87    88     5 
   84    87    89     5 
   84    87    90     5 
   88    87    89     5 
   88    87    90     5 
   89    87    90     5 
   87    90    91     5 
   87    90    92     5 
   91    90    92     5 
   82    93    94     5 
   82    93    95     5 
   94    93    95     5 
   93    95    96     5 
   93    95    97     5 
   96    95    97     5 
   95    97    98     5 
   95    97    99     5 
   95    97   107     5 
   98    97    99     5 
   98    97   107     5 
   99    97   107     5 
   97    99   100     5 
   97    99   101     5 
   97    99   103     5 
  100    99   101     5 
  100    99   103     5 
  101    99   103     5 
   99   101   102     5 
   99   103   104     5 
   99   103   105     5 
   99   103   106     5 
  104   103   105     5 
  104   103   106     5 
  105   103   106     5 
   97   107   108     5 
   97   107   109     5 
  108   107   109     5 
  107   109   110     5 
  107   109   111     5 
  110   109   111     5 
  109   111   112     5 
  109   111   113     5 
  109   111   114     5 
  112   111   113     5 
  112   111   114     5 
  113   111   114     5 
  111   114   115     5 
  111   114   116     5 
  115   114   116     5 
  114   116   117     5 
  114   116   118     5 
  117   116   118     5 
  116   118   119     5 
  116   118   120     5 
  116   118   128     5 
  119   118   120     5 
  119   118   128     5 
  120   118   128     5 
  118   120   121     5 
  118   120   122     5 
  118   120   124     5 
  121   120   122     5 
  121   120   124     5 
  122   120   124     5 
  120   122   123     5 
  120   124   125     5 
  120   124   126     5 
  120   124   127     5 
  125   124   126     5 
  125   124   127     5 
  126   124   127     5 
  118   128   129     5 
  118   128   130     5 
  129   128   130     5 
  128   130   131     5 
  128   130   132     5 
  131   130   132     5 
  130   132   133     5 
  130   132   134     5 
  130   132   152     5 
  133   132   134     5 
  133   132   152     5 
  134   132   152     5 
  132   134   135     5 
  132   134   136     5 
  132   134   137     5 
  135   134   136     5 
  135   134   137     5 
  136   134   137     5 
  134   137   138     5 
  134   137   143     5 
  138   137   143     5 
  137   138   139     5 
  137   138   140     5 
  139   138   140     5 
  138   140   141     5 
  138   140   142     5 
  141   140   142     5 
  140   142   143     5 
  140   142   148     5 
  143   142   148     5 
  137   143   142     5 
  137   143   144     5 
  142   143   144     5 
  143   144   145     5 
  143   144   146     5 
  145   144   146     5 
  144   146   147     5 
  144   146   150     5 
  147   146   150     5 
  142   148   149     5 
  142   148   150     5 
  149   148   150     5 
  146   150   148     5 
  146   150   151     5 
  148   150   151     5 
  132   152   153     5 
  132   152   154     5 
  153   152   154     5 
  152   154   155     5 
  152   154   156     5 
  155   154   156     5 
  154   156   157     5 
  154   156   158     5 
  154   156   173     5 
  157   156   158     5 
  157   156   173     5 
  158   156   173     5 
  156   158   159     5 
  156   158   160     5 
  156   158   161     5 
  159   158   160     5 
  159   158   161     5 
  160   158   161     5 
  158   161   162     5 
  158   161   169     5 
  162   161   169     5 
  161   162   163     5 
  161   162   164     5 
  163   162   164     5 
  162   164   165     5 
  162   164   166     5 
  165   164   166     5 
  164   166   167     5 
  164   166   171     5 
  167   166   171     5 
  166   167   168     5 
  161   169   170     5 
  161   169   171     5 
  170   169   171     5 
  166   171   169     5 
  166   171   172     5 
  169   171   172     5 
  156   173   174     5 
  156   173   175     5 
  174   173   175     5 

[ dihedrals ]
;  ai    aj    ak    al funct            c0            c1            c2            c3            c4            c5
    2     1     5     6     9 
    2     1     5     7     9 
    2     1     5    22     9 
    3     1     5     6     9 
    3     1     5     7     9 
    3     1     5    22     9 
    4     1     5     6     9 
    4     1     5     7     9 
    4     1     5    22     9 
    1     5     7     8     9 
    1     5     7     9     9 
    1     5     7    10     9 
    6     5     7     8     9 
    6     5     7     9     9 
    6     5     7    10     9 
   22     5     7     8     9 
   22     5     7     9     9 
   22     5     7    10     9 
    1     5    22    23     9 
    1     5    22    24     9 
    6     5    22    23     9 
    6     5    22    24     9 
    7     5    22    23     9 
    7     5    22    24     9 
    5     7    10    11     9 
    5     7    10    18     9 
    8     7    10    11     9 
    8     7    10    18     9 
    9     7    10    11     9 
    9     7    10    18     9 
    7    10    11    12     9 
    7    10    11    13     9 
   18    10    11    12     9 
   18    10    11    13     9 
    7    10    18    19     9 
    7    10    18    20     9 
   11    10    18    19     9 
   11    10    18    20     9 
   10    11    13    14     9 
   10    11    13    15     9 
   12    11    13    14     9 
   12    11    13    15     9 
   11    13    15    16     9 
   11    13    15    20     9 
   14    13    15    16     9 
   14    13    15    20     9 
   13    15    16    17     9 
   20    15    16    17     9 
   13    15    20    18     9 
   13    15    20    21     9 
   16    15    20    18     9 
   16    15    20    21     9 
   10    18    20    15     9 
   10    18    20    21     9 
   19    18    20    15     9 
   19    18    20    21     9 
    5    22    24    25     9 
    5    22    24    26     9 
   23    22    24    25     9 
   23    22    24    26     9 
   22    24    26    27     9 
   22    24    26    28     9 
   22    24    26    43     9 
   25    24    26    27     9 
   25    24    26    28     9 
   25    24    26    43     9 
   24    26    28    29     9 
   24    26    28    30     9 
   24    26    28    31     9 
   27    26    28    29     9 
   27    26    28    30     9 
   27    26    28    31     9 
   43    26    28    29     9 
   43    26    28    30     9 
   43    26    28    31     9 
   24    26    43    44     9 
   24    26    43    45     9 
   27    26    43    44     9 
   27    26    43    45     9 
   28    26    43    44     9 
   28    26    43    45     9 
   26    28    31    32     9 
   26    28    31    39     9 
   29    28    31    32     9 
   29    28    31    39     9 
   30    28    31    32     9 
   30    28    31    39     9 
   28    31    32    33     9 
   28    31    32    34     9 
   39    31    32    33     9 
   39    31    32    34     9 
   28    31    39    40     9 
   28    31    39    41     9 
   32    31    39    40     9 
   32    31    39    41     9 
   31    32    34    35     9 
   31    32    34    36     9 
   33    32    34    35     9 
   33    32    34    36     9 
   32    34    36    37     9 
   32    34    36    41     9 
   35    34    36    37     9 
   35    34    36    41     9 
   34    36    37    38     9 
   41    36    37    38     9 
   34    36    41    39     9 
   34    36    41    42     9 
   37    36    41    39     9 
   37    36    41    42     9 
   31    39    41    36     9 
   31    39    41    42     9 
   40    39    41    36     9 
   40    39    41    42     9 
   26    43    45    46     9 
   26    43    45    47     9 
   44    43    45    46     9 
   44    43    45    47     9 
   43    45    47    48     9 
   43    45    47    49     9 
   43    45    47    64     9 
   46    45    47    48     9 
   46    45    47    49     9 
   46    45    47    64     9 
   45    47    49    50     9 
   45    47    49    51     9 
   45    47    49    52     9 
   48    47    49    50     9 
   48    47    49    51     9 
   48    47    49    52     9 
   64    47    49    50     9 
   64    47    49    51     9 
   64    47    49    52     9 
   45    47    64    65     9 
   45    47    64    66     9 
   48    47    64    65     9 
   48    47    64    66     9 
   49    47    64    65     9 
   49    47    64    66     9 
   47    49    52    53     9 
   47    49    52    60     9 
   50    49    52    53     9 
   50    49    52    60     9 
   51    49    52    53     9 
   51    49    52    60     9 
   49    52    53    54     9 
   49    52    53    55     9 
   60    52    53    54     9 
   60    52    53    55     9 
   49    52    60    61     9 
   49    52    60    62     9 
   53    52    60    61     9 
   53    52    60    62     9 
   52    53    55    56     9 
   52    53    55    57     9 
   54    53    55    56     9 
   54    53    55    57     9 
   53    55    57    58     9 
   53    55    57    62     9 
   56    55    57    58     9 
   56    55    57    62     9 
   55    57    58    59     9 
   62    57    58    59     9 
   55    57    62    60     9 
   55    57    62    63     9 
   58    57    62    60     9 
   58    57    62    63     9 
   52    60    62    57     9 
   52    60    62    63     9 
   61    60    62    57     9 
   61    60    62    63     9 
   47    64    66    67     9 
   47    64    66    70     9 
   65    64    66    67     9 
   65    64    66    70     9 
   64    66    67    68     9 
   64    66    67    69     9 
   64    66    67    75     9 
   70    66    67    68     9 
   70    66    67    69     9 
   70    66    67    75     9 
   64    66    70    71     9 
   64    66    70    72     9 
   64    66    70    78     9 
   67    66    70    71     9 
   67    66    70    72     9 
   67    66    70    78     9 
   66    67    75    72     9 
   66    67    75    76     9 
   66    67    75    77     9 
   68    67    75    72     9 
   68    67    75    76     9 
   68    67    75    77     9 
   69    67    75    72     9 
   69    67    75    76     9 
   69    67    75    77     9 
   66    70    72    73     9 
   66    70    72    74     9 
   66    70    72    75     9 
   71    70    72    73     9 
   71    70    72    74     9 
   71    70    72    75     9 
   78    70    72    73     9 
   78    70    72    74     9 
   78    70    72    75     9 
   66    70    78    79     9 
   66    70    78    80     9 
   71    70    78    79     9 
   71    70    78    80     9 
   72    70    78    79     9 
   72    70    78    80     9 
   70    72    75    67     9 
   70    72    75    76     9 
   70    72    75    77     9 
   73    72    75    67     9 
   73    72    75    76     9 
   73    72    75    77     9 
   74    72    75    67     9 
   74    72    75    76     9 
   74    72    75    77     9 
   70    78    80    81     9 
   70    78    80    82     9 
   79    78    80    81     9 
   79    78    80    82     9 
   78    80    82    83     9 
   78    80    82    84     9 
   78    80    82    93     9 
   81    80    82    83     9 
   81    80    82    84     9 
   81    80    82    93     9 
   80    82    84    85     9 
   80    82    84    86     9 
   80    82    84    87     9 
   83    82    84    85     9 
   83    82    84    86     9 
   83    82    84    87     9 
   93    82    84    85     9 
   93    82    84    86     9 
   93    82    84    87     9 
   80    82    93    94     9 
   80    82    93    95     9 
   83    82    93    94     9 
   83    82    93    95     9 
   84    82    93    94     9 
   84    82    93    95     9 
   82    84    87    88     9 
   82    84    87    89     9 
   82    84    87    90     9 
   85    84    87    88     9 
   85    84    87    89     9 
   85    84    87    90     9 
   86    84    87    88     9 
   86    84    87    89     9 
   86    84    87    90     9 
   84    87    90    91     9 
   84    87    90    92     9 
   88    87    90    91     9 
   88    87    90    92     9 
   89    87    90    91     9 
   89    87    90    92     9 
   82    93    95    96     9 
   82    93    95    97     9 
   94    93    95    96     9 
   94    93    95    97     9 
   93    95    97    98     9 
   93    95    97    99     9 
   93    95    97   107     9 
   96    95    97    98     9 
   96    95    97    99     9 
   96    95    97   107     9 
   95    97    99   100     9 
   95    97    99   101     9 
   95    97    99   103     9 
   98    97    99   100     9 
   98    97    99   101     9 
   98    97    99   103     9 
  107    97    99   100     9 
  107    97    99   101     9 
  107    97    99   103     9 
   95    97   107   108     9 
   95    97   107   109     9 
   98    97   107   108     9 
   98    97   107   109     9 
   99    97   107   108     9 
   99    97   107   109     9 
   97    99   101   102     9 
  100    99   101   102     9 
  103    99   101   102     9 
   97    99   103   104     9 
   97    99   103   105     9 
   97    99   103   106     9 
  100    99   103   104     9 
  100    99   103   105     9 
  100    99   103   106     9 
  101    99   103   104     9 
  101    99   103   105     9 
  101    99   103   106     9 
   97   107   109   110     9 
   97   107   109   111     9 
  108   107   109   110     9 
  108   107   109   111     9 
  107   109   111   112     9 
  107   109   111   113     9 
  107   109   111   114     9 
  110   109   111   112     9 
  110   109   111   113     9 
  110   109   111   114     9 
  109   111   114   115     9 
  109   111   114   116     9 
  112   111   114   115     9 
  112   111   114   116     9 
  113   111   114   115     9 
  113   111   114   116     9 
  111   114   116   117     9 
  111   114   116   118     9 
  115   114   116   117     9 
  115   114   116   118     9 
  114   116   118   119     9 
  114   116   118   120     9 
  114   116   118   128     9 
  117   116   118   119     9 
  117   116   118   120     9 
  117   116   118   128     9 
  116   118   120   121     9 
  116   118   120   122     9 
  116   118   120   124     9 
  119   118   120   121     9 
  119   118   120   122     9 
  119   118   120   124     9 
  128   118   120   121     9 
  128   118   120   122     9 
  128   118   120   124     9 
  116   118   128   129     9 
  116   118   128   130     9 
  119   118   128   129     9 
  119   118   128   130     9 
  120   118   128   129     9 
  120   118   128   130     9 
  118   120   122   123     9 
  121   120   122   123     9 
  124   120   122   123     9 
  118   120   124   125     9 
  118   120   124   126     9 
  118   120   124   127     9 
  121   120   124   125     9 
  121   120   124   126     9 
  121   120   124   127     9 
  122   120   124   125     9 
  122   120   124   126     9 
  122   120   124   127     9 
  118   128   130   131     9 
  118   128   130   132     9 
  129   128   130   131     9 
  129   128   130   132     9 
  128   130   132   133     9 
  128   130   132   134     9 
  128   130   132   152     9 
  131   130   132   133     9 
  131   130   132   134     9 
  131   130   132   152     9 
  130   132   134   135     9 
  130   132   134   136     9 
  130   132   134   137     9 
  133   132   134   135     9 
  133   132   134   136     9 
  133   132   134   137     9 
  152   132   134   135     9 
  152   132   134   136     9 
  152   132   134   137     9 
  130   132   152   153     9 
  130   132   152   154     9 
  133   132   152   153     9 
  133   132   152   154     9 
  134   132   152   153     9 
  134   132   152   154     9 
  132   134   137   138     9 
  132   134   137   143     9 
  135   134   137   138     9 
  135   134   137   143     9 
  136   134   137   138     9 
  136   134   137   143     9 
  134   137   138   139     9 
  134   137   138   140     9 
  143   137   138   139     9 
  143   137   138   140     9 
  134   137   143   142     9 
  134   137   143   144     9 
  138   137   143   142     9 
  138   137   143   144     9 
  137   138   140   141     9 
  137   138   140   142     9 
  139   138   140   141     9 
  139   138   140   142     9 
  138   140   142   143     9 
  138   140   142   148     9 
  141   140   142   143     9 
  141   140   142   148     9 
  140   142   143   137     9 
  140   142   143   144     9 
  148   142   143   137     9 
  148   142   143   144     9 
  140   142   148   149     9 
  140   142   148   150     9 
  143   142   148   149     9 
  143   142   148   150     9 
  137   143   144   145     9 
  137   143   144   146     9 
  142   143   144   145     9 
  142   143   144   146     9 
  143   144   146   147     9 
  143   144   146   150     9 
  145   144   146   147     9 
  145   144   146   150     9 
  144   146   150   148     9 
  144   146   150   151     9 
  147   146   150   148     9 
  147   146   150   151     9 
  142   148   150   146     9 
  142   148   150   151     9 
  149   148   150   146     9 
  149   148   150   151     9 
  132   152   154   155     9 
  132   152   154   156     9 
  153   152   154   155     9 
  153   152   154   156     9 
  152   154   156   157     9 
  152   154   156   158     9 
  152   154   156   173     9 
  155   154   156   157     9 
  155   154   156   158     9 
  155   154   156   173     9 
  154   156   158   159     9 
  154   156   158   160     9 
  154   156   158   161     9 
  157   156   158   159     9 
  157   156   158   160     9 
  157   156   158   161     9 
  173   156   158   159     9 
  173   156   158   160     9 
  173   156   158   161     9 
  154   156   173   174     9 
  154   156   173   175     9 
  157   156   173   174     9 
  157   156   173   175     9 
  158   156   173   174     9 
  158   156   173   175     9 
  156   158   161   162     9 
  156   158   161   169     9 
  159   158   161   162     9 
  159   158   161   169     9 
  160   158   161   162     9 
  160   158   161   169     9 
  158   161   162   163     9 
  158   161   162   164     9 
  169   161   162   163     9 
  169   161   162   164     9 
  158   161   169   170     9 
  158   161   169   171     9 
  162   161   169   170     9 
  162   161   169   171     9 
  161   162   164   165     9 
  161   162   164   166     9 
  163   162   164   165     9 
  163   162   164   166     9 
  162   164   166   167     9 
  162   164   166   171     9 
  165   164   166   167     9 
  165   164   166   171     9 
  164   166   167   168     9 
  171   166   167   168     9 
  164   166   171   169     9 
  164   166   171   172     9 
  167   166   171   169     9 
  167   166   171   172     9 
  161   169   171   166     9 
  161   169   171   172     9 
  170   169   171   166     9 
  170   169   171   172     9 

[ dihedrals ]
;  ai    aj    ak    al funct            c0            c1            c2            c3
   22     5    24    23     2 
   24    22    26    25     2 
   43    26    45    44     2 
   45    43    47    46     2 
   64    47    66    65     2 
   66    64    70    67     2 
   78    70    80    79     2 
   80    78    82    81     2 
   90    87    92    91     2 
   93    82    95    94     2 
   95    93    97    96     2 
  107    97   109   108     2 
  109   107   111   110     2 
  114   111   116   115     2 
  116   114   118   117     2 
  128   118   130   129     2 
  130   128   132   131     2 
  152   132   154   153     2 
  154   152   156   155     2 
  173   156   175   174     2 

[ cmap ]
;  ai    aj    ak    al    am funct
   64    66    70    78    80     1 
  107   109   111   114   116     1 

; Include Position restraint file
#ifdef POSRES
#include "posre.itp"
#endif

; Include water topology
#include "charmm22star.ff/tip3p.itp"

#ifdef POSRES_WATER
; Position restraint for each water oxygen
[ position_restraints ]
;  i funct       fcx        fcy        fcz
   1    1       1000       1000       1000
#endif

; Include topology for ions
#include "charmm22star.ff/ions.itp"

[ system ]
; Name
Protein in water

[ molecules ]
; Compound        #mols
Protein_chain_A     1
SOL         1756
NA               1
