;
;	File 'topol.top' was generated
;	By user: muralika.m (21947)
;	On host: zeus
;	At date: Fri Sep 19 00:42:38 2025
;
;	This is a standalone topology file
;
;	Created by:
;	                    :-) GROMACS - gmx pdb2gmx, 2019.6 (-:
;	
;	Executable:   /home/muralika.m/.conda/envs/muralika/bin/gmx_mpi
;	Data prefix:  /home/muralika.m/.conda/envs/muralika
;	Working dir:  /rg/mendels_prj/muralika.m/ub/New_mutns/YYDPATGTWY
;	Command line:
;	  gmx_mpi pdb2gmx -f YYDPATGTWY.pdb -o processed_structure.gro -p topol.top -asp -glu -ter
;	Force field was read from the standard GROMACS share directory.
;

; Include forcefield parameters
#include "charmm22star.ff/forcefield.itp"

[ moleculetype ]
; Name            nrexcl
Protein_chain_A     3

[ atoms ]
;   nr       type  resnr residue  atom   cgnr     charge       mass  typeB    chargeB      massB
; residue   0 TYR rtp TYR  q +1.0
     1        NH3      0    TYR      N      1       -0.3    14.0027
     2         HC      0    TYR     H1      2       0.33      1.008
     3         HC      0    TYR     H2      3       0.33      1.008
     4         HC      0    TYR     H3      4       0.33      1.008
     5        CT1      0    TYR     CA      5       0.21     12.011
     6         HB      0    TYR     HA      6        0.1      1.008
     7        CT2      0    TYR     CB      7      -0.18     12.011
     8         HA      0    TYR    HB1      8       0.09      1.008
     9         HA      0    TYR    HB2      9       0.09      1.008
    10         CA      0    TYR     CG     10          0     12.011
    11         CA      0    TYR    CD1     11     -0.115     12.011
    12         HP      0    TYR    HD1     12      0.115      1.008
    13         CA      0    TYR    CE1     13     -0.115     12.011
    14         HP      0    TYR    HE1     14      0.115      1.008
    15         CA      0    TYR     CZ     15       0.11     12.011
    16        OH1      0    TYR     OH     16      -0.54     15.999
    17          H      0    TYR     HH     17       0.43      1.008
    18         CA      0    TYR    CD2     18     -0.115     12.011
    19         HP      0    TYR    HD2     19      0.115      1.008
    20         CA      0    TYR    CE2     20     -0.115     12.011
    21         HP      0    TYR    HE2     21      0.115      1.008
    22          C      0    TYR      C     22       0.51     12.011
    23          O      0    TYR      O     23      -0.51     15.999   ; qtot 1
; residue   1 TYR rtp TYR  q  0.0
    24        NH1      1    TYR      N     24      -0.47     14.007
    25          H      1    TYR     HN     25       0.31      1.008
    26        CT1      1    TYR     CA     26       0.07     12.011
    27         HB      1    TYR     HA     27       0.09      1.008
    28        CT2      1    TYR     CB     28      -0.18     12.011
    29         HA      1    TYR    HB1     29       0.09      1.008
    30         HA      1    TYR    HB2     30       0.09      1.008
    31         CA      1    TYR     CG     31          0     12.011
    32         CA      1    TYR    CD1     32     -0.115     12.011
    33         HP      1    TYR    HD1     33      0.115      1.008
    34         CA      1    TYR    CE1     34     -0.115     12.011
    35         HP      1    TYR    HE1     35      0.115      1.008
    36         CA      1    TYR     CZ     36       0.11     12.011
    37        OH1      1    TYR     OH     37      -0.54     15.999
    38          H      1    TYR     HH     38       0.43      1.008
    39         CA      1    TYR    CD2     39     -0.115     12.011
    40         HP      1    TYR    HD2     40      0.115      1.008
    41         CA      1    TYR    CE2     41     -0.115     12.011
    42         HP      1    TYR    HE2     42      0.115      1.008
    43          C      1    TYR      C     43       0.51     12.011
    44          O      1    TYR      O     44      -0.51     15.999   ; qtot 1
; residue   2 ASP rtp ASP  q -1.0
    45        NH1      2    ASP      N     45      -0.47     14.007
    46          H      2    ASP     HN     46       0.31      1.008
    47        CT1      2    ASP     CA     47       0.07     12.011
    48         HB      2    ASP     HA     48       0.09      1.008
    49        CT2      2    ASP     CB     49      -0.28     12.011
    50         HA      2    ASP    HB1     50       0.05      1.008
    51         HA      2    ASP    HB2     51       0.05      1.008
    52         CC      2    ASP     CG     52       0.56     12.011
    53         OC      2    ASP    OD1     53      -0.69     15.999
    54         OC      2    ASP    OD2     54      -0.69     15.999
    55          C      2    ASP      C     55       0.51     12.011
    56          O      2    ASP      O     56      -0.51     15.999   ; qtot 0
; residue   3 PRO rtp PRO  q  0.0
    57          N      3    PRO      N     57      -0.29     14.007
    58        CP3      3    PRO     CD     58          0     12.011
    59         HA      3    PRO    HD1     59       0.09      1.008
    60         HA      3    PRO    HD2     60       0.09      1.008
    61        CP1      3    PRO     CA     61       0.02     12.011
    62         HB      3    PRO     HA     62       0.09      1.008
    63        CP2      3    PRO     CB     63      -0.18     12.011
    64         HA      3    PRO    HB1     64       0.09      1.008
    65         HA      3    PRO    HB2     65       0.09      1.008
    66        CP2      3    PRO     CG     66      -0.18     12.011
    67         HA      3    PRO    HG1     67       0.09      1.008
    68         HA      3    PRO    HG2     68       0.09      1.008
    69          C      3    PRO      C     69       0.51     12.011
    70          O      3    PRO      O     70      -0.51     15.999   ; qtot 0
; residue   4 ALA rtp ALA  q  0.0
    71        NH1      4    ALA      N     71      -0.47     14.007
    72          H      4    ALA     HN     72       0.31      1.008
    73        CT1      4    ALA     CA     73       0.07     12.011
    74         HB      4    ALA     HA     74       0.09      1.008
    75        CT3      4    ALA     CB     75      -0.27     12.011
    76         HA      4    ALA    HB1     76       0.09      1.008
    77         HA      4    ALA    HB2     77       0.09      1.008
    78         HA      4    ALA    HB3     78       0.09      1.008
    79          C      4    ALA      C     79       0.51     12.011
    80          O      4    ALA      O     80      -0.51     15.999   ; qtot 0
; residue   5 THR rtp THR  q  0.0
    81        NH1      5    THR      N     81      -0.47     14.007
    82          H      5    THR     HN     82       0.31      1.008
    83        CT1      5    THR     CA     83       0.07     12.011
    84         HB      5    THR     HA     84       0.09      1.008
    85        CT1      5    THR     CB     85       0.14     12.011
    86         HA      5    THR     HB     86       0.09      1.008
    87        OH1      5    THR    OG1     87      -0.66     15.999
    88          H      5    THR    HG1     88       0.43      1.008
    89        CT3      5    THR    CG2     89      -0.27     12.011
    90         HA      5    THR   HG21     90       0.09      1.008
    91         HA      5    THR   HG22     91       0.09      1.008
    92         HA      5    THR   HG23     92       0.09      1.008
    93          C      5    THR      C     93       0.51     12.011
    94          O      5    THR      O     94      -0.51     15.999   ; qtot 0
; residue   6 GLY rtp GLY  q  0.0
    95        NH1      6    GLY      N     95      -0.47     14.007
    96          H      6    GLY     HN     96       0.31      1.008
    97        CT2      6    GLY     CA     97      -0.02     12.011
    98         HB      6    GLY    HA1     98       0.09      1.008
    99         HB      6    GLY    HA2     99       0.09      1.008
   100          C      6    GLY      C    100       0.51     12.011
   101          O      6    GLY      O    101      -0.51     15.999   ; qtot 0
; residue   7 THR rtp THR  q  0.0
   102        NH1      7    THR      N    102      -0.47     14.007
   103          H      7    THR     HN    103       0.31      1.008
   104        CT1      7    THR     CA    104       0.07     12.011
   105         HB      7    THR     HA    105       0.09      1.008
   106        CT1      7    THR     CB    106       0.14     12.011
   107         HA      7    THR     HB    107       0.09      1.008
   108        OH1      7    THR    OG1    108      -0.66     15.999
   109          H      7    THR    HG1    109       0.43      1.008
   110        CT3      7    THR    CG2    110      -0.27     12.011
   111         HA      7    THR   HG21    111       0.09      1.008
   112         HA      7    THR   HG22    112       0.09      1.008
   113         HA      7    THR   HG23    113       0.09      1.008
   114          C      7    THR      C    114       0.51     12.011
   115          O      7    THR      O    115      -0.51     15.999   ; qtot 0
; residue   8 TRP rtp TRP  q  0.0
   116        NH1      8    TRP      N    116      -0.47     14.007
   117          H      8    TRP     HN    117       0.31      1.008
   118        CT1      8    TRP     CA    118       0.07     12.011
   119         HB      8    TRP     HA    119       0.09      1.008
   120        CT2      8    TRP     CB    120      -0.18     12.011
   121         HA      8    TRP    HB1    121       0.09      1.008
   122         HA      8    TRP    HB2    122       0.09      1.008
   123         CY      8    TRP     CG    123      -0.03     12.011
   124         CA      8    TRP    CD1    124      0.035     12.011
   125         HP      8    TRP    HD1    125      0.115      1.008
   126         NY      8    TRP    NE1    126      -0.61     14.007
   127          H      8    TRP    HE1    127       0.38      1.008
   128        CPT      8    TRP    CE2    128       0.13     12.011
   129        CPT      8    TRP    CD2    129      -0.02     12.011
   130         CA      8    TRP    CE3    130     -0.115     12.011
   131         HP      8    TRP    HE3    131      0.115      1.008
   132         CA      8    TRP    CZ3    132     -0.115     12.011
   133         HP      8    TRP    HZ3    133      0.115      1.008
   134         CA      8    TRP    CZ2    134     -0.115     12.011
   135         HP      8    TRP    HZ2    135      0.115      1.008
   136         CA      8    TRP    CH2    136     -0.115     12.011
   137         HP      8    TRP    HH2    137      0.115      1.008
   138          C      8    TRP      C    138       0.51     12.011
   139          O      8    TRP      O    139      -0.51     15.999   ; qtot 0
; residue   9 TYR rtp TYR  q -1.0
   140        NH1      9    TYR      N    140      -0.47     14.007
   141          H      9    TYR     HN    141       0.31      1.008
   142        CT1      9    TYR     CA    142       0.07     12.011
   143         HB      9    TYR     HA    143       0.09      1.008
   144        CT2      9    TYR     CB    144      -0.18     12.011
   145         HA      9    TYR    HB1    145       0.09      1.008
   146         HA      9    TYR    HB2    146       0.09      1.008
   147         CA      9    TYR     CG    147          0     12.011
   148         CA      9    TYR    CD1    148     -0.115     12.011
   149         HP      9    TYR    HD1    149      0.115      1.008
   150         CA      9    TYR    CE1    150     -0.115     12.011
   151         HP      9    TYR    HE1    151      0.115      1.008
   152         CA      9    TYR     CZ    152       0.11     12.011
   153        OH1      9    TYR     OH    153      -0.54     15.999
   154          H      9    TYR     HH    154       0.43      1.008
   155         CA      9    TYR    CD2    155     -0.115     12.011
   156         HP      9    TYR    HD2    156      0.115      1.008
   157         CA      9    TYR    CE2    157     -0.115     12.011
   158         HP      9    TYR    HE2    158      0.115      1.008
   159         CC      9    TYR      C    159       0.34     12.011
   160         OC      9    TYR    OT1    160      -0.67    15.9994
   161         OC      9    TYR    OT2    161      -0.67    15.9994   ; qtot -1

[ bonds ]
;  ai    aj funct            c0            c1            c2            c3
    1     2     1 
    1     3     1 
    1     4     1 
    1     5     1 
    5     6     1 
    5     7     1 
    5    22     1 
    7     8     1 
    7     9     1 
    7    10     1 
   10    11     1 
   10    18     1 
   11    12     1 
   11    13     1 
   13    14     1 
   13    15     1 
   15    16     1 
   15    20     1 
   16    17     1 
   18    19     1 
   18    20     1 
   20    21     1 
   22    23     1 
   22    24     1 
   24    25     1 
   24    26     1 
   26    27     1 
   26    28     1 
   26    43     1 
   28    29     1 
   28    30     1 
   28    31     1 
   31    32     1 
   31    39     1 
   32    33     1 
   32    34     1 
   34    35     1 
   34    36     1 
   36    37     1 
   36    41     1 
   37    38     1 
   39    40     1 
   39    41     1 
   41    42     1 
   43    44     1 
   43    45     1 
   45    46     1 
   45    47     1 
   47    48     1 
   47    49     1 
   47    55     1 
   49    50     1 
   49    51     1 
   49    52     1 
   52    53     1 
   52    54     1 
   55    56     1 
   55    57     1 
   57    58     1 
   57    61     1 
   58    59     1 
   58    60     1 
   58    66     1 
   61    62     1 
   61    63     1 
   61    69     1 
   63    64     1 
   63    65     1 
   63    66     1 
   66    67     1 
   66    68     1 
   69    70     1 
   69    71     1 
   71    72     1 
   71    73     1 
   73    74     1 
   73    75     1 
   73    79     1 
   75    76     1 
   75    77     1 
   75    78     1 
   79    80     1 
   79    81     1 
   81    82     1 
   81    83     1 
   83    84     1 
   83    85     1 
   83    93     1 
   85    86     1 
   85    87     1 
   85    89     1 
   87    88     1 
   89    90     1 
   89    91     1 
   89    92     1 
   93    94     1 
   93    95     1 
   95    96     1 
   95    97     1 
   97    98     1 
   97    99     1 
   97   100     1 
  100   101     1 
  100   102     1 
  102   103     1 
  102   104     1 
  104   105     1 
  104   106     1 
  104   114     1 
  106   107     1 
  106   108     1 
  106   110     1 
  108   109     1 
  110   111     1 
  110   112     1 
  110   113     1 
  114   115     1 
  114   116     1 
  116   117     1 
  116   118     1 
  118   119     1 
  118   120     1 
  118   138     1 
  120   121     1 
  120   122     1 
  120   123     1 
  123   124     1 
  123   129     1 
  124   125     1 
  124   126     1 
  126   127     1 
  126   128     1 
  128   129     1 
  128   134     1 
  129   130     1 
  130   131     1 
  130   132     1 
  132   133     1 
  132   136     1 
  134   135     1 
  134   136     1 
  136   137     1 
  138   139     1 
  138   140     1 
  140   141     1 
  140   142     1 
  142   143     1 
  142   144     1 
  142   159     1 
  144   145     1 
  144   146     1 
  144   147     1 
  147   148     1 
  147   155     1 
  148   149     1 
  148   150     1 
  150   151     1 
  150   152     1 
  152   153     1 
  152   157     1 
  153   154     1 
  155   156     1 
  155   157     1 
  157   158     1 
  159   160     1 
  159   161     1 

[ pairs ]
;  ai    aj funct            c0            c1            c2            c3
    1     8     1 
    1     9     1 
    1    10     1 
    1    23     1 
    1    24     1 
    2     6     1 
    2     7     1 
    2    22     1 
    3     6     1 
    3     7     1 
    3    22     1 
    4     6     1 
    4     7     1 
    4    22     1 
    5    11     1 
    5    18     1 
    5    25     1 
    5    26     1 
    6     8     1 
    6     9     1 
    6    10     1 
    6    23     1 
    6    24     1 
    7    12     1 
    7    13     1 
    7    19     1 
    7    20     1 
    7    23     1 
    7    24     1 
    8    11     1 
    8    18     1 
    8    22     1 
    9    11     1 
    9    18     1 
    9    22     1 
   10    14     1 
   10    15     1 
   10    21     1 
   10    22     1 
   11    16     1 
   11    19     1 
   11    20     1 
   12    14     1 
   12    15     1 
   12    18     1 
   13    17     1 
   13    18     1 
   13    21     1 
   14    16     1 
   14    20     1 
   15    19     1 
   16    18     1 
   16    21     1 
   17    20     1 
   19    21     1 
   22    27     1 
   22    28     1 
   22    43     1 
   23    25     1 
   23    26     1 
   24    29     1 
   24    30     1 
   24    31     1 
   24    44     1 
   24    45     1 
   25    27     1 
   25    28     1 
   25    43     1 
   26    32     1 
   26    39     1 
   26    46     1 
   26    47     1 
   27    29     1 
   27    30     1 
   27    31     1 
   27    44     1 
   27    45     1 
   28    33     1 
   28    34     1 
   28    40     1 
   28    41     1 
   28    44     1 
   28    45     1 
   29    32     1 
   29    39     1 
   29    43     1 
   30    32     1 
   30    39     1 
   30    43     1 
   31    35     1 
   31    36     1 
   31    42     1 
   31    43     1 
   32    37     1 
   32    40     1 
   32    41     1 
   33    35     1 
   33    36     1 
   33    39     1 
   34    38     1 
   34    39     1 
   34    42     1 
   35    37     1 
   35    41     1 
   36    40     1 
   37    39     1 
   37    42     1 
   38    41     1 
   40    42     1 
   43    48     1 
   43    49     1 
   43    55     1 
   44    46     1 
   44    47     1 
   45    50     1 
   45    51     1 
   45    52     1 
   45    56     1 
   45    57     1 
   46    48     1 
   46    49     1 
   46    55     1 
   47    53     1 
   47    54     1 
   47    58     1 
   47    61     1 
   48    50     1 
   48    51     1 
   48    52     1 
   48    56     1 
   48    57     1 
   49    56     1 
   49    57     1 
   50    53     1 
   50    54     1 
   50    55     1 
   51    53     1 
   51    54     1 
   51    55     1 
   52    55     1 
   55    59     1 
   55    60     1 
   55    62     1 
   55    63     1 
   55    66     1 
   55    69     1 
   56    58     1 
   56    61     1 
   57    64     1 
   57    65     1 
   57    67     1 
   57    68     1 
   57    70     1 
   57    71     1 
   58    62     1 
   58    64     1 
   58    65     1 
   58    69     1 
   59    61     1 
   59    63     1 
   59    67     1 
   59    68     1 
   60    61     1 
   60    63     1 
   60    67     1 
   60    68     1 
   61    67     1 
   61    68     1 
   61    72     1 
   61    73     1 
   62    64     1 
   62    65     1 
   62    66     1 
   62    70     1 
   62    71     1 
   63    70     1 
   63    71     1 
   64    67     1 
   64    68     1 
   64    69     1 
   65    67     1 
   65    68     1 
   65    69     1 
   66    69     1 
   69    74     1 
   69    75     1 
   69    79     1 
   70    72     1 
   70    73     1 
   71    76     1 
   71    77     1 
   71    78     1 
   71    80     1 
   71    81     1 
   72    74     1 
   72    75     1 
   72    79     1 
   73    82     1 
   73    83     1 
   74    76     1 
   74    77     1 
   74    78     1 
   74    80     1 
   74    81     1 
   75    80     1 
   75    81     1 
   76    79     1 
   77    79     1 
   78    79     1 
   79    84     1 
   79    85     1 
   79    93     1 
   80    82     1 
   80    83     1 
   81    86     1 
   81    87     1 
   81    89     1 
   81    94     1 
   81    95     1 
   82    84     1 
   82    85     1 
   82    93     1 
   83    88     1 
   83    90     1 
   83    91     1 
   83    92     1 
   83    96     1 
   83    97     1 
   84    86     1 
   84    87     1 
   84    89     1 
   84    94     1 
   84    95     1 
   85    94     1 
   85    95     1 
   86    88     1 
   86    90     1 
   86    91     1 
   86    92     1 
   86    93     1 
   87    90     1 
   87    91     1 
   87    92     1 
   87    93     1 
   88    89     1 
   89    93     1 
   93    98     1 
   93    99     1 
   93   100     1 
   94    96     1 
   94    97     1 
   95   101     1 
   95   102     1 
   96    98     1 
   96    99     1 
   96   100     1 
   97   103     1 
   97   104     1 
   98   101     1 
   98   102     1 
   99   101     1 
   99   102     1 
  100   105     1 
  100   106     1 
  100   114     1 
  101   103     1 
  101   104     1 
  102   107     1 
  102   108     1 
  102   110     1 
  102   115     1 
  102   116     1 
  103   105     1 
  103   106     1 
  103   114     1 
  104   109     1 
  104   111     1 
  104   112     1 
  104   113     1 
  104   117     1 
  104   118     1 
  105   107     1 
  105   108     1 
  105   110     1 
  105   115     1 
  105   116     1 
  106   115     1 
  106   116     1 
  107   109     1 
  107   111     1 
  107   112     1 
  107   113     1 
  107   114     1 
  108   111     1 
  108   112     1 
  108   113     1 
  108   114     1 
  109   110     1 
  110   114     1 
  114   119     1 
  114   120     1 
  114   138     1 
  115   117     1 
  115   118     1 
  116   121     1 
  116   122     1 
  116   123     1 
  116   139     1 
  116   140     1 
  117   119     1 
  117   120     1 
  117   138     1 
  118   124     1 
  118   129     1 
  118   141     1 
  118   142     1 
  119   121     1 
  119   122     1 
  119   123     1 
  119   139     1 
  119   140     1 
  120   125     1 
  120   126     1 
  120   128     1 
  120   130     1 
  120   139     1 
  120   140     1 
  121   124     1 
  121   129     1 
  121   138     1 
  122   124     1 
  122   129     1 
  122   138     1 
  123   127     1 
  123   131     1 
  123   132     1 
  123   134     1 
  123   138     1 
  124   130     1 
  124   134     1 
  125   127     1 
  125   128     1 
  125   129     1 
  126   130     1 
  126   135     1 
  126   136     1 
  127   129     1 
  127   134     1 
  128   131     1 
  128   132     1 
  128   137     1 
  129   133     1 
  129   135     1 
  129   136     1 
  130   134     1 
  130   137     1 
  131   133     1 
  131   136     1 
  132   135     1 
  133   134     1 
  133   137     1 
  135   137     1 
  138   143     1 
  138   144     1 
  138   159     1 
  139   141     1 
  139   142     1 
  140   145     1 
  140   146     1 
  140   147     1 
  140   160     1 
  140   161     1 
  141   143     1 
  141   144     1 
  141   159     1 
  142   148     1 
  142   155     1 
  143   145     1 
  143   146     1 
  143   147     1 
  143   160     1 
  143   161     1 
  144   149     1 
  144   150     1 
  144   156     1 
  144   157     1 
  144   160     1 
  144   161     1 
  145   148     1 
  145   155     1 
  145   159     1 
  146   148     1 
  146   155     1 
  146   159     1 
  147   151     1 
  147   152     1 
  147   158     1 
  147   159     1 
  148   153     1 
  148   156     1 
  148   157     1 
  149   151     1 
  149   152     1 
  149   155     1 
  150   154     1 
  150   155     1 
  150   158     1 
  151   153     1 
  151   157     1 
  152   156     1 
  153   155     1 
  153   158     1 
  154   157     1 
  156   158     1 

[ angles ]
;  ai    aj    ak funct            c0            c1            c2            c3
    2     1     3     5 
    2     1     4     5 
    2     1     5     5 
    3     1     4     5 
    3     1     5     5 
    4     1     5     5 
    1     5     6     5 
    1     5     7     5 
    1     5    22     5 
    6     5     7     5 
    6     5    22     5 
    7     5    22     5 
    5     7     8     5 
    5     7     9     5 
    5     7    10     5 
    8     7     9     5 
    8     7    10     5 
    9     7    10     5 
    7    10    11     5 
    7    10    18     5 
   11    10    18     5 
   10    11    12     5 
   10    11    13     5 
   12    11    13     5 
   11    13    14     5 
   11    13    15     5 
   14    13    15     5 
   13    15    16     5 
   13    15    20     5 
   16    15    20     5 
   15    16    17     5 
   10    18    19     5 
   10    18    20     5 
   19    18    20     5 
   15    20    18     5 
   15    20    21     5 
   18    20    21     5 
    5    22    23     5 
    5    22    24     5 
   23    22    24     5 
   22    24    25     5 
   22    24    26     5 
   25    24    26     5 
   24    26    27     5 
   24    26    28     5 
   24    26    43     5 
   27    26    28     5 
   27    26    43     5 
   28    26    43     5 
   26    28    29     5 
   26    28    30     5 
   26    28    31     5 
   29    28    30     5 
   29    28    31     5 
   30    28    31     5 
   28    31    32     5 
   28    31    39     5 
   32    31    39     5 
   31    32    33     5 
   31    32    34     5 
   33    32    34     5 
   32    34    35     5 
   32    34    36     5 
   35    34    36     5 
   34    36    37     5 
   34    36    41     5 
   37    36    41     5 
   36    37    38     5 
   31    39    40     5 
   31    39    41     5 
   40    39    41     5 
   36    41    39     5 
   36    41    42     5 
   39    41    42     5 
   26    43    44     5 
   26    43    45     5 
   44    43    45     5 
   43    45    46     5 
   43    45    47     5 
   46    45    47     5 
   45    47    48     5 
   45    47    49     5 
   45    47    55     5 
   48    47    49     5 
   48    47    55     5 
   49    47    55     5 
   47    49    50     5 
   47    49    51     5 
   47    49    52     5 
   50    49    51     5 
   50    49    52     5 
   51    49    52     5 
   49    52    53     5 
   49    52    54     5 
   53    52    54     5 
   47    55    56     5 
   47    55    57     5 
   56    55    57     5 
   55    57    58     5 
   55    57    61     5 
   58    57    61     5 
   57    58    59     5 
   57    58    60     5 
   57    58    66     5 
   59    58    60     5 
   59    58    66     5 
   60    58    66     5 
   57    61    62     5 
   57    61    63     5 
   57    61    69     5 
   62    61    63     5 
   62    61    69     5 
   63    61    69     5 
   61    63    64     5 
   61    63    65     5 
   61    63    66     5 
   64    63    65     5 
   64    63    66     5 
   65    63    66     5 
   58    66    63     5 
   58    66    67     5 
   58    66    68     5 
   63    66    67     5 
   63    66    68     5 
   67    66    68     5 
   61    69    70     5 
   61    69    71     5 
   70    69    71     5 
   69    71    72     5 
   69    71    73     5 
   72    71    73     5 
   71    73    74     5 
   71    73    75     5 
   71    73    79     5 
   74    73    75     5 
   74    73    79     5 
   75    73    79     5 
   73    75    76     5 
   73    75    77     5 
   73    75    78     5 
   76    75    77     5 
   76    75    78     5 
   77    75    78     5 
   73    79    80     5 
   73    79    81     5 
   80    79    81     5 
   79    81    82     5 
   79    81    83     5 
   82    81    83     5 
   81    83    84     5 
   81    83    85     5 
   81    83    93     5 
   84    83    85     5 
   84    83    93     5 
   85    83    93     5 
   83    85    86     5 
   83    85    87     5 
   83    85    89     5 
   86    85    87     5 
   86    85    89     5 
   87    85    89     5 
   85    87    88     5 
   85    89    90     5 
   85    89    91     5 
   85    89    92     5 
   90    89    91     5 
   90    89    92     5 
   91    89    92     5 
   83    93    94     5 
   83    93    95     5 
   94    93    95     5 
   93    95    96     5 
   93    95    97     5 
   96    95    97     5 
   95    97    98     5 
   95    97    99     5 
   95    97   100     5 
   98    97    99     5 
   98    97   100     5 
   99    97   100     5 
   97   100   101     5 
   97   100   102     5 
  101   100   102     5 
  100   102   103     5 
  100   102   104     5 
  103   102   104     5 
  102   104   105     5 
  102   104   106     5 
  102   104   114     5 
  105   104   106     5 
  105   104   114     5 
  106   104   114     5 
  104   106   107     5 
  104   106   108     5 
  104   106   110     5 
  107   106   108     5 
  107   106   110     5 
  108   106   110     5 
  106   108   109     5 
  106   110   111     5 
  106   110   112     5 
  106   110   113     5 
  111   110   112     5 
  111   110   113     5 
  112   110   113     5 
  104   114   115     5 
  104   114   116     5 
  115   114   116     5 
  114   116   117     5 
  114   116   118     5 
  117   116   118     5 
  116   118   119     5 
  116   118   120     5 
  116   118   138     5 
  119   118   120     5 
  119   118   138     5 
  120   118   138     5 
  118   120   121     5 
  118   120   122     5 
  118   120   123     5 
  121   120   122     5 
  121   120   123     5 
  122   120   123     5 
  120   123   124     5 
  120   123   129     5 
  124   123   129     5 
  123   124   125     5 
  123   124   126     5 
  125   124   126     5 
  124   126   127     5 
  124   126   128     5 
  127   126   128     5 
  126   128   129     5 
  126   128   134     5 
  129   128   134     5 
  123   129   128     5 
  123   129   130     5 
  128   129   130     5 
  129   130   131     5 
  129   130   132     5 
  131   130   132     5 
  130   132   133     5 
  130   132   136     5 
  133   132   136     5 
  128   134   135     5 
  128   134   136     5 
  135   134   136     5 
  132   136   134     5 
  132   136   137     5 
  134   136   137     5 
  118   138   139     5 
  118   138   140     5 
  139   138   140     5 
  138   140   141     5 
  138   140   142     5 
  141   140   142     5 
  140   142   143     5 
  140   142   144     5 
  140   142   159     5 
  143   142   144     5 
  143   142   159     5 
  144   142   159     5 
  142   144   145     5 
  142   144   146     5 
  142   144   147     5 
  145   144   146     5 
  145   144   147     5 
  146   144   147     5 
  144   147   148     5 
  144   147   155     5 
  148   147   155     5 
  147   148   149     5 
  147   148   150     5 
  149   148   150     5 
  148   150   151     5 
  148   150   152     5 
  151   150   152     5 
  150   152   153     5 
  150   152   157     5 
  153   152   157     5 
  152   153   154     5 
  147   155   156     5 
  147   155   157     5 
  156   155   157     5 
  152   157   155     5 
  152   157   158     5 
  155   157   158     5 
  142   159   160     5 
  142   159   161     5 
  160   159   161     5 

[ dihedrals ]
;  ai    aj    ak    al funct            c0            c1            c2            c3            c4            c5
    2     1     5     6     9 
    2     1     5     7     9 
    2     1     5    22     9 
    3     1     5     6     9 
    3     1     5     7     9 
    3     1     5    22     9 
    4     1     5     6     9 
    4     1     5     7     9 
    4     1     5    22     9 
    1     5     7     8     9 
    1     5     7     9     9 
    1     5     7    10     9 
    6     5     7     8     9 
    6     5     7     9     9 
    6     5     7    10     9 
   22     5     7     8     9 
   22     5     7     9     9 
   22     5     7    10     9 
    1     5    22    23     9 
    1     5    22    24     9 
    6     5    22    23     9 
    6     5    22    24     9 
    7     5    22    23     9 
    7     5    22    24     9 
    5     7    10    11     9 
    5     7    10    18     9 
    8     7    10    11     9 
    8     7    10    18     9 
    9     7    10    11     9 
    9     7    10    18     9 
    7    10    11    12     9 
    7    10    11    13     9 
   18    10    11    12     9 
   18    10    11    13     9 
    7    10    18    19     9 
    7    10    18    20     9 
   11    10    18    19     9 
   11    10    18    20     9 
   10    11    13    14     9 
   10    11    13    15     9 
   12    11    13    14     9 
   12    11    13    15     9 
   11    13    15    16     9 
   11    13    15    20     9 
   14    13    15    16     9 
   14    13    15    20     9 
   13    15    16    17     9 
   20    15    16    17     9 
   13    15    20    18     9 
   13    15    20    21     9 
   16    15    20    18     9 
   16    15    20    21     9 
   10    18    20    15     9 
   10    18    20    21     9 
   19    18    20    15     9 
   19    18    20    21     9 
    5    22    24    25     9 
    5    22    24    26     9 
   23    22    24    25     9 
   23    22    24    26     9 
   22    24    26    27     9 
   22    24    26    28     9 
   22    24    26    43     9 
   25    24    26    27     9 
   25    24    26    28     9 
   25    24    26    43     9 
   24    26    28    29     9 
   24    26    28    30     9 
   24    26    28    31     9 
   27    26    28    29     9 
   27    26    28    30     9 
   27    26    28    31     9 
   43    26    28    29     9 
   43    26    28    30     9 
   43    26    28    31     9 
   24    26    43    44     9 
   24    26    43    45     9 
   27    26    43    44     9 
   27    26    43    45     9 
   28    26    43    44     9 
   28    26    43    45     9 
   26    28    31    32     9 
   26    28    31    39     9 
   29    28    31    32     9 
   29    28    31    39     9 
   30    28    31    32     9 
   30    28    31    39     9 
   28    31    32    33     9 
   28    31    32    34     9 
   39    31    32    33     9 
   39    31    32    34     9 
   28    31    39    40     9 
   28    31    39    41     9 
   32    31    39    40     9 
   32    31    39    41     9 
   31    32    34    35     9 
   31    32    34    36     9 
   33    32    34    35     9 
   33    32    34    36     9 
   32    34    36    37     9 
   32    34    36    41     9 
   35    34    36    37     9 
   35    34    36    41     9 
   34    36    37    38     9 
   41    36    37    38     9 
   34    36    41    39     9 
   34    36    41    42     9 
   37    36    41    39     9 
   37    36    41    42     9 
   31    39    41    36     9 
   31    39    41    42     9 
   40    39    41    36     9 
   40    39    41    42     9 
   26    43    45    46     9 
   26    43    45    47     9 
   44    43    45    46     9 
   44    43    45    47     9 
   43    45    47    48     9 
   43    45    47    49     9 
   43    45    47    55     9 
   46    45    47    48     9 
   46    45    47    49     9 
   46    45    47    55     9 
   45    47    49    50     9 
   45    47    49    51     9 
   45    47    49    52     9 
   48    47    49    50     9 
   48    47    49    51     9 
   48    47    49    52     9 
   55    47    49    50     9 
   55    47    49    51     9 
   55    47    49    52     9 
   45    47    55    56     9 
   45    47    55    57     9 
   48    47    55    56     9 
   48    47    55    57     9 
   49    47    55    56     9 
   49    47    55    57     9 
   47    49    52    53     9 
   47    49    52    54     9 
   50    49    52    53     9 
   50    49    52    54     9 
   51    49    52    53     9 
   51    49    52    54     9 
   47    55    57    58     9 
   47    55    57    61     9 
   56    55    57    58     9 
   56    55    57    61     9 
   55    57    58    59     9 
   55    57    58    60     9 
   55    57    58    66     9 
   61    57    58    59     9 
   61    57    58    60     9 
   61    57    58    66     9 
   55    57    61    62     9 
   55    57    61    63     9 
   55    57    61    69     9 
   58    57    61    62     9 
   58    57    61    63     9 
   58    57    61    69     9 
   57    58    66    63     9 
   57    58    66    67     9 
   57    58    66    68     9 
   59    58    66    63     9 
   59    58    66    67     9 
   59    58    66    68     9 
   60    58    66    63     9 
   60    58    66    67     9 
   60    58    66    68     9 
   57    61    63    64     9 
   57    61    63    65     9 
   57    61    63    66     9 
   62    61    63    64     9 
   62    61    63    65     9 
   62    61    63    66     9 
   69    61    63    64     9 
   69    61    63    65     9 
   69    61    63    66     9 
   57    61    69    70     9 
   57    61    69    71     9 
   62    61    69    70     9 
   62    61    69    71     9 
   63    61    69    70     9 
   63    61    69    71     9 
   61    63    66    58     9 
   61    63    66    67     9 
   61    63    66    68     9 
   64    63    66    58     9 
   64    63    66    67     9 
   64    63    66    68     9 
   65    63    66    58     9 
   65    63    66    67     9 
   65    63    66    68     9 
   61    69    71    72     9 
   61    69    71    73     9 
   70    69    71    72     9 
   70    69    71    73     9 
   69    71    73    74     9 
   69    71    73    75     9 
   69    71    73    79     9 
   72    71    73    74     9 
   72    71    73    75     9 
   72    71    73    79     9 
   71    73    75    76     9 
   71    73    75    77     9 
   71    73    75    78     9 
   74    73    75    76     9 
   74    73    75    77     9 
   74    73    75    78     9 
   79    73    75    76     9 
   79    73    75    77     9 
   79    73    75    78     9 
   71    73    79    80     9 
   71    73    79    81     9 
   74    73    79    80     9 
   74    73    79    81     9 
   75    73    79    80     9 
   75    73    79    81     9 
   73    79    81    82     9 
   73    79    81    83     9 
   80    79    81    82     9 
   80    79    81    83     9 
   79    81    83    84     9 
   79    81    83    85     9 
   79    81    83    93     9 
   82    81    83    84     9 
   82    81    83    85     9 
   82    81    83    93     9 
   81    83    85    86     9 
   81    83    85    87     9 
   81    83    85    89     9 
   84    83    85    86     9 
   84    83    85    87     9 
   84    83    85    89     9 
   93    83    85    86     9 
   93    83    85    87     9 
   93    83    85    89     9 
   81    83    93    94     9 
   81    83    93    95     9 
   84    83    93    94     9 
   84    83    93    95     9 
   85    83    93    94     9 
   85    83    93    95     9 
   83    85    87    88     9 
   86    85    87    88     9 
   89    85    87    88     9 
   83    85    89    90     9 
   83    85    89    91     9 
   83    85    89    92     9 
   86    85    89    90     9 
   86    85    89    91     9 
   86    85    89    92     9 
   87    85    89    90     9 
   87    85    89    91     9 
   87    85    89    92     9 
   83    93    95    96     9 
   83    93    95    97     9 
   94    93    95    96     9 
   94    93    95    97     9 
   93    95    97    98     9 
   93    95    97    99     9 
   93    95    97   100     9 
   96    95    97    98     9 
   96    95    97    99     9 
   96    95    97   100     9 
   95    97   100   101     9 
   95    97   100   102     9 
   98    97   100   101     9 
   98    97   100   102     9 
   99    97   100   101     9 
   99    97   100   102     9 
   97   100   102   103     9 
   97   100   102   104     9 
  101   100   102   103     9 
  101   100   102   104     9 
  100   102   104   105     9 
  100   102   104   106     9 
  100   102   104   114     9 
  103   102   104   105     9 
  103   102   104   106     9 
  103   102   104   114     9 
  102   104   106   107     9 
  102   104   106   108     9 
  102   104   106   110     9 
  105   104   106   107     9 
  105   104   106   108     9 
  105   104   106   110     9 
  114   104   106   107     9 
  114   104   106   108     9 
  114   104   106   110     9 
  102   104   114   115     9 
  102   104   114   116     9 
  105   104   114   115     9 
  105   104   114   116     9 
  106   104   114   115     9 
  106   104   114   116     9 
  104   106   108   109     9 
  107   106   108   109     9 
  110   106   108   109     9 
  104   106   110   111     9 
  104   106   110   112     9 
  104   106   110   113     9 
  107   106   110   111     9 
  107   106   110   112     9 
  107   106   110   113     9 
  108   106   110   111     9 
  108   106   110   112     9 
  108   106   110   113     9 
  104   114   116   117     9 
  104   114   116   118     9 
  115   114   116   117     9 
  115   114   116   118     9 
  114   116   118   119     9 
  114   116   118   120     9 
  114   116   118   138     9 
  117   116   118   119     9 
  117   116   118   120     9 
  117   116   118   138     9 
  116   118   120   121     9 
  116   118   120   122     9 
  116   118   120   123     9 
  119   118   120   121     9 
  119   118   120   122     9 
  119   118   120   123     9 
  138   118   120   121     9 
  138   118   120   122     9 
  138   118   120   123     9 
  116   118   138   139     9 
  116   118   138   140     9 
  119   118   138   139     9 
  119   118   138   140     9 
  120   118   138   139     9 
  120   118   138   140     9 
  118   120   123   124     9 
  118   120   123   129     9 
  121   120   123   124     9 
  121   120   123   129     9 
  122   120   123   124     9 
  122   120   123   129     9 
  120   123   124   125     9 
  120   123   124   126     9 
  129   123   124   125     9 
  129   123   124   126     9 
  120   123   129   128     9 
  120   123   129   130     9 
  124   123   129   128     9 
  124   123   129   130     9 
  123   124   126   127     9 
  123   124   126   128     9 
  125   124   126   127     9 
  125   124   126   128     9 
  124   126   128   129     9 
  124   126   128   134     9 
  127   126   128   129     9 
  127   126   128   134     9 
  126   128   129   123     9 
  126   128   129   130     9 
  134   128   129   123     9 
  134   128   129   130     9 
  126   128   134   135     9 
  126   128   134   136     9 
  129   128   134   135     9 
  129   128   134   136     9 
  123   129   130   131     9 
  123   129   130   132     9 
  128   129   130   131     9 
  128   129   130   132     9 
  129   130   132   133     9 
  129   130   132   136     9 
  131   130   132   133     9 
  131   130   132   136     9 
  130   132   136   134     9 
  130   132   136   137     9 
  133   132   136   134     9 
  133   132   136   137     9 
  128   134   136   132     9 
  128   134   136   137     9 
  135   134   136   132     9 
  135   134   136   137     9 
  118   138   140   141     9 
  118   138   140   142     9 
  139   138   140   141     9 
  139   138   140   142     9 
  138   140   142   143     9 
  138   140   142   144     9 
  138   140   142   159     9 
  141   140   142   143     9 
  141   140   142   144     9 
  141   140   142   159     9 
  140   142   144   145     9 
  140   142   144   146     9 
  140   142   144   147     9 
  143   142   144   145     9 
  143   142   144   146     9 
  143   142   144   147     9 
  159   142   144   145     9 
  159   142   144   146     9 
  159   142   144   147     9 
  140   142   159   160     9 
  140   142   159   161     9 
  143   142   159   160     9 
  143   142   159   161     9 
  144   142   159   160     9 
  144   142   159   161     9 
  142   144   147   148     9 
  142   144   147   155     9 
  145   144   147   148     9 
  145   144   147   155     9 
  146   144   147   148     9 
  146   144   147   155     9 
  144   147   148   149     9 
  144   147   148   150     9 
  155   147   148   149     9 
  155   147   148   150     9 
  144   147   155   156     9 
  144   147   155   157     9 
  148   147   155   156     9 
  148   147   155   157     9 
  147   148   150   151     9 
  147   148   150   152     9 
  149   148   150   151     9 
  149   148   150   152     9 
  148   150   152   153     9 
  148   150   152   157     9 
  151   150   152   153     9 
  151   150   152   157     9 
  150   152   153   154     9 
  157   152   153   154     9 
  150   152   157   155     9 
  150   152   157   158     9 
  153   152   157   155     9 
  153   152   157   158     9 
  147   155   157   152     9 
  147   155   157   158     9 
  156   155   157   152     9 
  156   155   157   158     9 

[ dihedrals ]
;  ai    aj    ak    al funct            c0            c1            c2            c3
   22     5    24    23     2 
   24    22    26    25     2 
   43    26    45    44     2 
   45    43    47    46     2 
   52    49    54    53     2 
   55    47    57    56     2 
   57    55    61    58     2 
   69    61    71    70     2 
   71    69    73    72     2 
   79    73    81    80     2 
   81    79    83    82     2 
   93    83    95    94     2 
   95    93    97    96     2 
  100    97   102   101     2 
  102   100   104   103     2 
  114   104   116   115     2 
  116   114   118   117     2 
  138   118   140   139     2 
  140   138   142   141     2 
  159   142   161   160     2 

[ cmap ]
;  ai    aj    ak    al    am funct
   55    57    61    69    71     1 
   93    95    97   100   102     1 

; Include Position restraint file
#ifdef POSRES
#include "posre.itp"
#endif

; Include water topology
#include "charmm22star.ff/tip3p.itp"

#ifdef POSRES_WATER
; Position restraint for each water oxygen
[ position_restraints ]
;  i funct       fcx        fcy        fcz
   1    1       1000       1000       1000
#endif

; Include topology for ions
#include "charmm22star.ff/ions.itp"

[ system ]
; Name
Protein in water

[ molecules ]
; Compound        #mols
Protein_chain_A     1
SOL         1466
NA               1
