;
;	File 'topol.top' was generated
;	By user: muralika.m (21947)
;	On host: zeus
;	At date: Fri Sep 19 00:48:22 2025
;
;	This is a standalone topology file
;
;	Created by:
;	                    :-) GROMACS - gmx pdb2gmx, 2019.6 (-:
;	
;	Executable:   /home/muralika.m/.conda/envs/muralika/bin/gmx_mpi
;	Data prefix:  /home/muralika.m/.conda/envs/muralika
;	Working dir:  /rg/mendels_prj/muralika.m/ub/New_mutns/YYDPGTGTWY
;	Command line:
;	  gmx_mpi pdb2gmx -f YYDPGTGTWY.pdb -o processed_structure.gro -p topol.top -asp -glu -ter
;	Force field was read from the standard GROMACS share directory.
;

; Include forcefield parameters
#include "charmm22star.ff/forcefield.itp"

[ moleculetype ]
; Name            nrexcl
Protein_chain_A     3

[ atoms ]
;   nr       type  resnr residue  atom   cgnr     charge       mass  typeB    chargeB      massB
; residue   0 TYR rtp TYR  q +1.0
     1        NH3      0    TYR      N      1       -0.3    14.0027
     2         HC      0    TYR     H1      2       0.33      1.008
     3         HC      0    TYR     H2      3       0.33      1.008
     4         HC      0    TYR     H3      4       0.33      1.008
     5        CT1      0    TYR     CA      5       0.21     12.011
     6         HB      0    TYR     HA      6        0.1      1.008
     7        CT2      0    TYR     CB      7      -0.18     12.011
     8         HA      0    TYR    HB1      8       0.09      1.008
     9         HA      0    TYR    HB2      9       0.09      1.008
    10         CA      0    TYR     CG     10          0     12.011
    11         CA      0    TYR    CD1     11     -0.115     12.011
    12         HP      0    TYR    HD1     12      0.115      1.008
    13         CA      0    TYR    CE1     13     -0.115     12.011
    14         HP      0    TYR    HE1     14      0.115      1.008
    15         CA      0    TYR     CZ     15       0.11     12.011
    16        OH1      0    TYR     OH     16      -0.54     15.999
    17          H      0    TYR     HH     17       0.43      1.008
    18         CA      0    TYR    CD2     18     -0.115     12.011
    19         HP      0    TYR    HD2     19      0.115      1.008
    20         CA      0    TYR    CE2     20     -0.115     12.011
    21         HP      0    TYR    HE2     21      0.115      1.008
    22          C      0    TYR      C     22       0.51     12.011
    23          O      0    TYR      O     23      -0.51     15.999   ; qtot 1
; residue   1 TYR rtp TYR  q  0.0
    24        NH1      1    TYR      N     24      -0.47     14.007
    25          H      1    TYR     HN     25       0.31      1.008
    26        CT1      1    TYR     CA     26       0.07     12.011
    27         HB      1    TYR     HA     27       0.09      1.008
    28        CT2      1    TYR     CB     28      -0.18     12.011
    29         HA      1    TYR    HB1     29       0.09      1.008
    30         HA      1    TYR    HB2     30       0.09      1.008
    31         CA      1    TYR     CG     31          0     12.011
    32         CA      1    TYR    CD1     32     -0.115     12.011
    33         HP      1    TYR    HD1     33      0.115      1.008
    34         CA      1    TYR    CE1     34     -0.115     12.011
    35         HP      1    TYR    HE1     35      0.115      1.008
    36         CA      1    TYR     CZ     36       0.11     12.011
    37        OH1      1    TYR     OH     37      -0.54     15.999
    38          H      1    TYR     HH     38       0.43      1.008
    39         CA      1    TYR    CD2     39     -0.115     12.011
    40         HP      1    TYR    HD2     40      0.115      1.008
    41         CA      1    TYR    CE2     41     -0.115     12.011
    42         HP      1    TYR    HE2     42      0.115      1.008
    43          C      1    TYR      C     43       0.51     12.011
    44          O      1    TYR      O     44      -0.51     15.999   ; qtot 1
; residue   2 ASP rtp ASP  q -1.0
    45        NH1      2    ASP      N     45      -0.47     14.007
    46          H      2    ASP     HN     46       0.31      1.008
    47        CT1      2    ASP     CA     47       0.07     12.011
    48         HB      2    ASP     HA     48       0.09      1.008
    49        CT2      2    ASP     CB     49      -0.28     12.011
    50         HA      2    ASP    HB1     50       0.05      1.008
    51         HA      2    ASP    HB2     51       0.05      1.008
    52         CC      2    ASP     CG     52       0.56     12.011
    53         OC      2    ASP    OD1     53      -0.69     15.999
    54         OC      2    ASP    OD2     54      -0.69     15.999
    55          C      2    ASP      C     55       0.51     12.011
    56          O      2    ASP      O     56      -0.51     15.999   ; qtot 0
; residue   3 PRO rtp PRO  q  0.0
    57          N      3    PRO      N     57      -0.29     14.007
    58        CP3      3    PRO     CD     58          0     12.011
    59         HA      3    PRO    HD1     59       0.09      1.008
    60         HA      3    PRO    HD2     60       0.09      1.008
    61        CP1      3    PRO     CA     61       0.02     12.011
    62         HB      3    PRO     HA     62       0.09      1.008
    63        CP2      3    PRO     CB     63      -0.18     12.011
    64         HA      3    PRO    HB1     64       0.09      1.008
    65         HA      3    PRO    HB2     65       0.09      1.008
    66        CP2      3    PRO     CG     66      -0.18     12.011
    67         HA      3    PRO    HG1     67       0.09      1.008
    68         HA      3    PRO    HG2     68       0.09      1.008
    69          C      3    PRO      C     69       0.51     12.011
    70          O      3    PRO      O     70      -0.51     15.999   ; qtot 0
; residue   4 GLY rtp GLY  q  0.0
    71        NH1      4    GLY      N     71      -0.47     14.007
    72          H      4    GLY     HN     72       0.31      1.008
    73        CT2      4    GLY     CA     73      -0.02     12.011
    74         HB      4    GLY    HA1     74       0.09      1.008
    75         HB      4    GLY    HA2     75       0.09      1.008
    76          C      4    GLY      C     76       0.51     12.011
    77          O      4    GLY      O     77      -0.51     15.999   ; qtot 0
; residue   5 THR rtp THR  q  0.0
    78        NH1      5    THR      N     78      -0.47     14.007
    79          H      5    THR     HN     79       0.31      1.008
    80        CT1      5    THR     CA     80       0.07     12.011
    81         HB      5    THR     HA     81       0.09      1.008
    82        CT1      5    THR     CB     82       0.14     12.011
    83         HA      5    THR     HB     83       0.09      1.008
    84        OH1      5    THR    OG1     84      -0.66     15.999
    85          H      5    THR    HG1     85       0.43      1.008
    86        CT3      5    THR    CG2     86      -0.27     12.011
    87         HA      5    THR   HG21     87       0.09      1.008
    88         HA      5    THR   HG22     88       0.09      1.008
    89         HA      5    THR   HG23     89       0.09      1.008
    90          C      5    THR      C     90       0.51     12.011
    91          O      5    THR      O     91      -0.51     15.999   ; qtot 0
; residue   6 GLY rtp GLY  q  0.0
    92        NH1      6    GLY      N     92      -0.47     14.007
    93          H      6    GLY     HN     93       0.31      1.008
    94        CT2      6    GLY     CA     94      -0.02     12.011
    95         HB      6    GLY    HA1     95       0.09      1.008
    96         HB      6    GLY    HA2     96       0.09      1.008
    97          C      6    GLY      C     97       0.51     12.011
    98          O      6    GLY      O     98      -0.51     15.999   ; qtot 0
; residue   7 THR rtp THR  q  0.0
    99        NH1      7    THR      N     99      -0.47     14.007
   100          H      7    THR     HN    100       0.31      1.008
   101        CT1      7    THR     CA    101       0.07     12.011
   102         HB      7    THR     HA    102       0.09      1.008
   103        CT1      7    THR     CB    103       0.14     12.011
   104         HA      7    THR     HB    104       0.09      1.008
   105        OH1      7    THR    OG1    105      -0.66     15.999
   106          H      7    THR    HG1    106       0.43      1.008
   107        CT3      7    THR    CG2    107      -0.27     12.011
   108         HA      7    THR   HG21    108       0.09      1.008
   109         HA      7    THR   HG22    109       0.09      1.008
   110         HA      7    THR   HG23    110       0.09      1.008
   111          C      7    THR      C    111       0.51     12.011
   112          O      7    THR      O    112      -0.51     15.999   ; qtot 0
; residue   8 TRP rtp TRP  q  0.0
   113        NH1      8    TRP      N    113      -0.47     14.007
   114          H      8    TRP     HN    114       0.31      1.008
   115        CT1      8    TRP     CA    115       0.07     12.011
   116         HB      8    TRP     HA    116       0.09      1.008
   117        CT2      8    TRP     CB    117      -0.18     12.011
   118         HA      8    TRP    HB1    118       0.09      1.008
   119         HA      8    TRP    HB2    119       0.09      1.008
   120         CY      8    TRP     CG    120      -0.03     12.011
   121         CA      8    TRP    CD1    121      0.035     12.011
   122         HP      8    TRP    HD1    122      0.115      1.008
   123         NY      8    TRP    NE1    123      -0.61     14.007
   124          H      8    TRP    HE1    124       0.38      1.008
   125        CPT      8    TRP    CE2    125       0.13     12.011
   126        CPT      8    TRP    CD2    126      -0.02     12.011
   127         CA      8    TRP    CE3    127     -0.115     12.011
   128         HP      8    TRP    HE3    128      0.115      1.008
   129         CA      8    TRP    CZ3    129     -0.115     12.011
   130         HP      8    TRP    HZ3    130      0.115      1.008
   131         CA      8    TRP    CZ2    131     -0.115     12.011
   132         HP      8    TRP    HZ2    132      0.115      1.008
   133         CA      8    TRP    CH2    133     -0.115     12.011
   134         HP      8    TRP    HH2    134      0.115      1.008
   135          C      8    TRP      C    135       0.51     12.011
   136          O      8    TRP      O    136      -0.51     15.999   ; qtot 0
; residue   9 TYR rtp TYR  q -1.0
   137        NH1      9    TYR      N    137      -0.47     14.007
   138          H      9    TYR     HN    138       0.31      1.008
   139        CT1      9    TYR     CA    139       0.07     12.011
   140         HB      9    TYR     HA    140       0.09      1.008
   141        CT2      9    TYR     CB    141      -0.18     12.011
   142         HA      9    TYR    HB1    142       0.09      1.008
   143         HA      9    TYR    HB2    143       0.09      1.008
   144         CA      9    TYR     CG    144          0     12.011
   145         CA      9    TYR    CD1    145     -0.115     12.011
   146         HP      9    TYR    HD1    146      0.115      1.008
   147         CA      9    TYR    CE1    147     -0.115     12.011
   148         HP      9    TYR    HE1    148      0.115      1.008
   149         CA      9    TYR     CZ    149       0.11     12.011
   150        OH1      9    TYR     OH    150      -0.54     15.999
   151          H      9    TYR     HH    151       0.43      1.008
   152         CA      9    TYR    CD2    152     -0.115     12.011
   153         HP      9    TYR    HD2    153      0.115      1.008
   154         CA      9    TYR    CE2    154     -0.115     12.011
   155         HP      9    TYR    HE2    155      0.115      1.008
   156         CC      9    TYR      C    156       0.34     12.011
   157         OC      9    TYR    OT1    157      -0.67    15.9994
   158         OC      9    TYR    OT2    158      -0.67    15.9994   ; qtot -1

[ bonds ]
;  ai    aj funct            c0            c1            c2            c3
    1     2     1 
    1     3     1 
    1     4     1 
    1     5     1 
    5     6     1 
    5     7     1 
    5    22     1 
    7     8     1 
    7     9     1 
    7    10     1 
   10    11     1 
   10    18     1 
   11    12     1 
   11    13     1 
   13    14     1 
   13    15     1 
   15    16     1 
   15    20     1 
   16    17     1 
   18    19     1 
   18    20     1 
   20    21     1 
   22    23     1 
   22    24     1 
   24    25     1 
   24    26     1 
   26    27     1 
   26    28     1 
   26    43     1 
   28    29     1 
   28    30     1 
   28    31     1 
   31    32     1 
   31    39     1 
   32    33     1 
   32    34     1 
   34    35     1 
   34    36     1 
   36    37     1 
   36    41     1 
   37    38     1 
   39    40     1 
   39    41     1 
   41    42     1 
   43    44     1 
   43    45     1 
   45    46     1 
   45    47     1 
   47    48     1 
   47    49     1 
   47    55     1 
   49    50     1 
   49    51     1 
   49    52     1 
   52    53     1 
   52    54     1 
   55    56     1 
   55    57     1 
   57    58     1 
   57    61     1 
   58    59     1 
   58    60     1 
   58    66     1 
   61    62     1 
   61    63     1 
   61    69     1 
   63    64     1 
   63    65     1 
   63    66     1 
   66    67     1 
   66    68     1 
   69    70     1 
   69    71     1 
   71    72     1 
   71    73     1 
   73    74     1 
   73    75     1 
   73    76     1 
   76    77     1 
   76    78     1 
   78    79     1 
   78    80     1 
   80    81     1 
   80    82     1 
   80    90     1 
   82    83     1 
   82    84     1 
   82    86     1 
   84    85     1 
   86    87     1 
   86    88     1 
   86    89     1 
   90    91     1 
   90    92     1 
   92    93     1 
   92    94     1 
   94    95     1 
   94    96     1 
   94    97     1 
   97    98     1 
   97    99     1 
   99   100     1 
   99   101     1 
  101   102     1 
  101   103     1 
  101   111     1 
  103   104     1 
  103   105     1 
  103   107     1 
  105   106     1 
  107   108     1 
  107   109     1 
  107   110     1 
  111   112     1 
  111   113     1 
  113   114     1 
  113   115     1 
  115   116     1 
  115   117     1 
  115   135     1 
  117   118     1 
  117   119     1 
  117   120     1 
  120   121     1 
  120   126     1 
  121   122     1 
  121   123     1 
  123   124     1 
  123   125     1 
  125   126     1 
  125   131     1 
  126   127     1 
  127   128     1 
  127   129     1 
  129   130     1 
  129   133     1 
  131   132     1 
  131   133     1 
  133   134     1 
  135   136     1 
  135   137     1 
  137   138     1 
  137   139     1 
  139   140     1 
  139   141     1 
  139   156     1 
  141   142     1 
  141   143     1 
  141   144     1 
  144   145     1 
  144   152     1 
  145   146     1 
  145   147     1 
  147   148     1 
  147   149     1 
  149   150     1 
  149   154     1 
  150   151     1 
  152   153     1 
  152   154     1 
  154   155     1 
  156   157     1 
  156   158     1 

[ pairs ]
;  ai    aj funct            c0            c1            c2            c3
    1     8     1 
    1     9     1 
    1    10     1 
    1    23     1 
    1    24     1 
    2     6     1 
    2     7     1 
    2    22     1 
    3     6     1 
    3     7     1 
    3    22     1 
    4     6     1 
    4     7     1 
    4    22     1 
    5    11     1 
    5    18     1 
    5    25     1 
    5    26     1 
    6     8     1 
    6     9     1 
    6    10     1 
    6    23     1 
    6    24     1 
    7    12     1 
    7    13     1 
    7    19     1 
    7    20     1 
    7    23     1 
    7    24     1 
    8    11     1 
    8    18     1 
    8    22     1 
    9    11     1 
    9    18     1 
    9    22     1 
   10    14     1 
   10    15     1 
   10    21     1 
   10    22     1 
   11    16     1 
   11    19     1 
   11    20     1 
   12    14     1 
   12    15     1 
   12    18     1 
   13    17     1 
   13    18     1 
   13    21     1 
   14    16     1 
   14    20     1 
   15    19     1 
   16    18     1 
   16    21     1 
   17    20     1 
   19    21     1 
   22    27     1 
   22    28     1 
   22    43     1 
   23    25     1 
   23    26     1 
   24    29     1 
   24    30     1 
   24    31     1 
   24    44     1 
   24    45     1 
   25    27     1 
   25    28     1 
   25    43     1 
   26    32     1 
   26    39     1 
   26    46     1 
   26    47     1 
   27    29     1 
   27    30     1 
   27    31     1 
   27    44     1 
   27    45     1 
   28    33     1 
   28    34     1 
   28    40     1 
   28    41     1 
   28    44     1 
   28    45     1 
   29    32     1 
   29    39     1 
   29    43     1 
   30    32     1 
   30    39     1 
   30    43     1 
   31    35     1 
   31    36     1 
   31    42     1 
   31    43     1 
   32    37     1 
   32    40     1 
   32    41     1 
   33    35     1 
   33    36     1 
   33    39     1 
   34    38     1 
   34    39     1 
   34    42     1 
   35    37     1 
   35    41     1 
   36    40     1 
   37    39     1 
   37    42     1 
   38    41     1 
   40    42     1 
   43    48     1 
   43    49     1 
   43    55     1 
   44    46     1 
   44    47     1 
   45    50     1 
   45    51     1 
   45    52     1 
   45    56     1 
   45    57     1 
   46    48     1 
   46    49     1 
   46    55     1 
   47    53     1 
   47    54     1 
   47    58     1 
   47    61     1 
   48    50     1 
   48    51     1 
   48    52     1 
   48    56     1 
   48    57     1 
   49    56     1 
   49    57     1 
   50    53     1 
   50    54     1 
   50    55     1 
   51    53     1 
   51    54     1 
   51    55     1 
   52    55     1 
   55    59     1 
   55    60     1 
   55    62     1 
   55    63     1 
   55    66     1 
   55    69     1 
   56    58     1 
   56    61     1 
   57    64     1 
   57    65     1 
   57    67     1 
   57    68     1 
   57    70     1 
   57    71     1 
   58    62     1 
   58    64     1 
   58    65     1 
   58    69     1 
   59    61     1 
   59    63     1 
   59    67     1 
   59    68     1 
   60    61     1 
   60    63     1 
   60    67     1 
   60    68     1 
   61    67     1 
   61    68     1 
   61    72     1 
   61    73     1 
   62    64     1 
   62    65     1 
   62    66     1 
   62    70     1 
   62    71     1 
   63    70     1 
   63    71     1 
   64    67     1 
   64    68     1 
   64    69     1 
   65    67     1 
   65    68     1 
   65    69     1 
   66    69     1 
   69    74     1 
   69    75     1 
   69    76     1 
   70    72     1 
   70    73     1 
   71    77     1 
   71    78     1 
   72    74     1 
   72    75     1 
   72    76     1 
   73    79     1 
   73    80     1 
   74    77     1 
   74    78     1 
   75    77     1 
   75    78     1 
   76    81     1 
   76    82     1 
   76    90     1 
   77    79     1 
   77    80     1 
   78    83     1 
   78    84     1 
   78    86     1 
   78    91     1 
   78    92     1 
   79    81     1 
   79    82     1 
   79    90     1 
   80    85     1 
   80    87     1 
   80    88     1 
   80    89     1 
   80    93     1 
   80    94     1 
   81    83     1 
   81    84     1 
   81    86     1 
   81    91     1 
   81    92     1 
   82    91     1 
   82    92     1 
   83    85     1 
   83    87     1 
   83    88     1 
   83    89     1 
   83    90     1 
   84    87     1 
   84    88     1 
   84    89     1 
   84    90     1 
   85    86     1 
   86    90     1 
   90    95     1 
   90    96     1 
   90    97     1 
   91    93     1 
   91    94     1 
   92    98     1 
   92    99     1 
   93    95     1 
   93    96     1 
   93    97     1 
   94   100     1 
   94   101     1 
   95    98     1 
   95    99     1 
   96    98     1 
   96    99     1 
   97   102     1 
   97   103     1 
   97   111     1 
   98   100     1 
   98   101     1 
   99   104     1 
   99   105     1 
   99   107     1 
   99   112     1 
   99   113     1 
  100   102     1 
  100   103     1 
  100   111     1 
  101   106     1 
  101   108     1 
  101   109     1 
  101   110     1 
  101   114     1 
  101   115     1 
  102   104     1 
  102   105     1 
  102   107     1 
  102   112     1 
  102   113     1 
  103   112     1 
  103   113     1 
  104   106     1 
  104   108     1 
  104   109     1 
  104   110     1 
  104   111     1 
  105   108     1 
  105   109     1 
  105   110     1 
  105   111     1 
  106   107     1 
  107   111     1 
  111   116     1 
  111   117     1 
  111   135     1 
  112   114     1 
  112   115     1 
  113   118     1 
  113   119     1 
  113   120     1 
  113   136     1 
  113   137     1 
  114   116     1 
  114   117     1 
  114   135     1 
  115   121     1 
  115   126     1 
  115   138     1 
  115   139     1 
  116   118     1 
  116   119     1 
  116   120     1 
  116   136     1 
  116   137     1 
  117   122     1 
  117   123     1 
  117   125     1 
  117   127     1 
  117   136     1 
  117   137     1 
  118   121     1 
  118   126     1 
  118   135     1 
  119   121     1 
  119   126     1 
  119   135     1 
  120   124     1 
  120   128     1 
  120   129     1 
  120   131     1 
  120   135     1 
  121   127     1 
  121   131     1 
  122   124     1 
  122   125     1 
  122   126     1 
  123   127     1 
  123   132     1 
  123   133     1 
  124   126     1 
  124   131     1 
  125   128     1 
  125   129     1 
  125   134     1 
  126   130     1 
  126   132     1 
  126   133     1 
  127   131     1 
  127   134     1 
  128   130     1 
  128   133     1 
  129   132     1 
  130   131     1 
  130   134     1 
  132   134     1 
  135   140     1 
  135   141     1 
  135   156     1 
  136   138     1 
  136   139     1 
  137   142     1 
  137   143     1 
  137   144     1 
  137   157     1 
  137   158     1 
  138   140     1 
  138   141     1 
  138   156     1 
  139   145     1 
  139   152     1 
  140   142     1 
  140   143     1 
  140   144     1 
  140   157     1 
  140   158     1 
  141   146     1 
  141   147     1 
  141   153     1 
  141   154     1 
  141   157     1 
  141   158     1 
  142   145     1 
  142   152     1 
  142   156     1 
  143   145     1 
  143   152     1 
  143   156     1 
  144   148     1 
  144   149     1 
  144   155     1 
  144   156     1 
  145   150     1 
  145   153     1 
  145   154     1 
  146   148     1 
  146   149     1 
  146   152     1 
  147   151     1 
  147   152     1 
  147   155     1 
  148   150     1 
  148   154     1 
  149   153     1 
  150   152     1 
  150   155     1 
  151   154     1 
  153   155     1 

[ angles ]
;  ai    aj    ak funct            c0            c1            c2            c3
    2     1     3     5 
    2     1     4     5 
    2     1     5     5 
    3     1     4     5 
    3     1     5     5 
    4     1     5     5 
    1     5     6     5 
    1     5     7     5 
    1     5    22     5 
    6     5     7     5 
    6     5    22     5 
    7     5    22     5 
    5     7     8     5 
    5     7     9     5 
    5     7    10     5 
    8     7     9     5 
    8     7    10     5 
    9     7    10     5 
    7    10    11     5 
    7    10    18     5 
   11    10    18     5 
   10    11    12     5 
   10    11    13     5 
   12    11    13     5 
   11    13    14     5 
   11    13    15     5 
   14    13    15     5 
   13    15    16     5 
   13    15    20     5 
   16    15    20     5 
   15    16    17     5 
   10    18    19     5 
   10    18    20     5 
   19    18    20     5 
   15    20    18     5 
   15    20    21     5 
   18    20    21     5 
    5    22    23     5 
    5    22    24     5 
   23    22    24     5 
   22    24    25     5 
   22    24    26     5 
   25    24    26     5 
   24    26    27     5 
   24    26    28     5 
   24    26    43     5 
   27    26    28     5 
   27    26    43     5 
   28    26    43     5 
   26    28    29     5 
   26    28    30     5 
   26    28    31     5 
   29    28    30     5 
   29    28    31     5 
   30    28    31     5 
   28    31    32     5 
   28    31    39     5 
   32    31    39     5 
   31    32    33     5 
   31    32    34     5 
   33    32    34     5 
   32    34    35     5 
   32    34    36     5 
   35    34    36     5 
   34    36    37     5 
   34    36    41     5 
   37    36    41     5 
   36    37    38     5 
   31    39    40     5 
   31    39    41     5 
   40    39    41     5 
   36    41    39     5 
   36    41    42     5 
   39    41    42     5 
   26    43    44     5 
   26    43    45     5 
   44    43    45     5 
   43    45    46     5 
   43    45    47     5 
   46    45    47     5 
   45    47    48     5 
   45    47    49     5 
   45    47    55     5 
   48    47    49     5 
   48    47    55     5 
   49    47    55     5 
   47    49    50     5 
   47    49    51     5 
   47    49    52     5 
   50    49    51     5 
   50    49    52     5 
   51    49    52     5 
   49    52    53     5 
   49    52    54     5 
   53    52    54     5 
   47    55    56     5 
   47    55    57     5 
   56    55    57     5 
   55    57    58     5 
   55    57    61     5 
   58    57    61     5 
   57    58    59     5 
   57    58    60     5 
   57    58    66     5 
   59    58    60     5 
   59    58    66     5 
   60    58    66     5 
   57    61    62     5 
   57    61    63     5 
   57    61    69     5 
   62    61    63     5 
   62    61    69     5 
   63    61    69     5 
   61    63    64     5 
   61    63    65     5 
   61    63    66     5 
   64    63    65     5 
   64    63    66     5 
   65    63    66     5 
   58    66    63     5 
   58    66    67     5 
   58    66    68     5 
   63    66    67     5 
   63    66    68     5 
   67    66    68     5 
   61    69    70     5 
   61    69    71     5 
   70    69    71     5 
   69    71    72     5 
   69    71    73     5 
   72    71    73     5 
   71    73    74     5 
   71    73    75     5 
   71    73    76     5 
   74    73    75     5 
   74    73    76     5 
   75    73    76     5 
   73    76    77     5 
   73    76    78     5 
   77    76    78     5 
   76    78    79     5 
   76    78    80     5 
   79    78    80     5 
   78    80    81     5 
   78    80    82     5 
   78    80    90     5 
   81    80    82     5 
   81    80    90     5 
   82    80    90     5 
   80    82    83     5 
   80    82    84     5 
   80    82    86     5 
   83    82    84     5 
   83    82    86     5 
   84    82    86     5 
   82    84    85     5 
   82    86    87     5 
   82    86    88     5 
   82    86    89     5 
   87    86    88     5 
   87    86    89     5 
   88    86    89     5 
   80    90    91     5 
   80    90    92     5 
   91    90    92     5 
   90    92    93     5 
   90    92    94     5 
   93    92    94     5 
   92    94    95     5 
   92    94    96     5 
   92    94    97     5 
   95    94    96     5 
   95    94    97     5 
   96    94    97     5 
   94    97    98     5 
   94    97    99     5 
   98    97    99     5 
   97    99   100     5 
   97    99   101     5 
  100    99   101     5 
   99   101   102     5 
   99   101   103     5 
   99   101   111     5 
  102   101   103     5 
  102   101   111     5 
  103   101   111     5 
  101   103   104     5 
  101   103   105     5 
  101   103   107     5 
  104   103   105     5 
  104   103   107     5 
  105   103   107     5 
  103   105   106     5 
  103   107   108     5 
  103   107   109     5 
  103   107   110     5 
  108   107   109     5 
  108   107   110     5 
  109   107   110     5 
  101   111   112     5 
  101   111   113     5 
  112   111   113     5 
  111   113   114     5 
  111   113   115     5 
  114   113   115     5 
  113   115   116     5 
  113   115   117     5 
  113   115   135     5 
  116   115   117     5 
  116   115   135     5 
  117   115   135     5 
  115   117   118     5 
  115   117   119     5 
  115   117   120     5 
  118   117   119     5 
  118   117   120     5 
  119   117   120     5 
  117   120   121     5 
  117   120   126     5 
  121   120   126     5 
  120   121   122     5 
  120   121   123     5 
  122   121   123     5 
  121   123   124     5 
  121   123   125     5 
  124   123   125     5 
  123   125   126     5 
  123   125   131     5 
  126   125   131     5 
  120   126   125     5 
  120   126   127     5 
  125   126   127     5 
  126   127   128     5 
  126   127   129     5 
  128   127   129     5 
  127   129   130     5 
  127   129   133     5 
  130   129   133     5 
  125   131   132     5 
  125   131   133     5 
  132   131   133     5 
  129   133   131     5 
  129   133   134     5 
  131   133   134     5 
  115   135   136     5 
  115   135   137     5 
  136   135   137     5 
  135   137   138     5 
  135   137   139     5 
  138   137   139     5 
  137   139   140     5 
  137   139   141     5 
  137   139   156     5 
  140   139   141     5 
  140   139   156     5 
  141   139   156     5 
  139   141   142     5 
  139   141   143     5 
  139   141   144     5 
  142   141   143     5 
  142   141   144     5 
  143   141   144     5 
  141   144   145     5 
  141   144   152     5 
  145   144   152     5 
  144   145   146     5 
  144   145   147     5 
  146   145   147     5 
  145   147   148     5 
  145   147   149     5 
  148   147   149     5 
  147   149   150     5 
  147   149   154     5 
  150   149   154     5 
  149   150   151     5 
  144   152   153     5 
  144   152   154     5 
  153   152   154     5 
  149   154   152     5 
  149   154   155     5 
  152   154   155     5 
  139   156   157     5 
  139   156   158     5 
  157   156   158     5 

[ dihedrals ]
;  ai    aj    ak    al funct            c0            c1            c2            c3            c4            c5
    2     1     5     6     9 
    2     1     5     7     9 
    2     1     5    22     9 
    3     1     5     6     9 
    3     1     5     7     9 
    3     1     5    22     9 
    4     1     5     6     9 
    4     1     5     7     9 
    4     1     5    22     9 
    1     5     7     8     9 
    1     5     7     9     9 
    1     5     7    10     9 
    6     5     7     8     9 
    6     5     7     9     9 
    6     5     7    10     9 
   22     5     7     8     9 
   22     5     7     9     9 
   22     5     7    10     9 
    1     5    22    23     9 
    1     5    22    24     9 
    6     5    22    23     9 
    6     5    22    24     9 
    7     5    22    23     9 
    7     5    22    24     9 
    5     7    10    11     9 
    5     7    10    18     9 
    8     7    10    11     9 
    8     7    10    18     9 
    9     7    10    11     9 
    9     7    10    18     9 
    7    10    11    12     9 
    7    10    11    13     9 
   18    10    11    12     9 
   18    10    11    13     9 
    7    10    18    19     9 
    7    10    18    20     9 
   11    10    18    19     9 
   11    10    18    20     9 
   10    11    13    14     9 
   10    11    13    15     9 
   12    11    13    14     9 
   12    11    13    15     9 
   11    13    15    16     9 
   11    13    15    20     9 
   14    13    15    16     9 
   14    13    15    20     9 
   13    15    16    17     9 
   20    15    16    17     9 
   13    15    20    18     9 
   13    15    20    21     9 
   16    15    20    18     9 
   16    15    20    21     9 
   10    18    20    15     9 
   10    18    20    21     9 
   19    18    20    15     9 
   19    18    20    21     9 
    5    22    24    25     9 
    5    22    24    26     9 
   23    22    24    25     9 
   23    22    24    26     9 
   22    24    26    27     9 
   22    24    26    28     9 
   22    24    26    43     9 
   25    24    26    27     9 
   25    24    26    28     9 
   25    24    26    43     9 
   24    26    28    29     9 
   24    26    28    30     9 
   24    26    28    31     9 
   27    26    28    29     9 
   27    26    28    30     9 
   27    26    28    31     9 
   43    26    28    29     9 
   43    26    28    30     9 
   43    26    28    31     9 
   24    26    43    44     9 
   24    26    43    45     9 
   27    26    43    44     9 
   27    26    43    45     9 
   28    26    43    44     9 
   28    26    43    45     9 
   26    28    31    32     9 
   26    28    31    39     9 
   29    28    31    32     9 
   29    28    31    39     9 
   30    28    31    32     9 
   30    28    31    39     9 
   28    31    32    33     9 
   28    31    32    34     9 
   39    31    32    33     9 
   39    31    32    34     9 
   28    31    39    40     9 
   28    31    39    41     9 
   32    31    39    40     9 
   32    31    39    41     9 
   31    32    34    35     9 
   31    32    34    36     9 
   33    32    34    35     9 
   33    32    34    36     9 
   32    34    36    37     9 
   32    34    36    41     9 
   35    34    36    37     9 
   35    34    36    41     9 
   34    36    37    38     9 
   41    36    37    38     9 
   34    36    41    39     9 
   34    36    41    42     9 
   37    36    41    39     9 
   37    36    41    42     9 
   31    39    41    36     9 
   31    39    41    42     9 
   40    39    41    36     9 
   40    39    41    42     9 
   26    43    45    46     9 
   26    43    45    47     9 
   44    43    45    46     9 
   44    43    45    47     9 
   43    45    47    48     9 
   43    45    47    49     9 
   43    45    47    55     9 
   46    45    47    48     9 
   46    45    47    49     9 
   46    45    47    55     9 
   45    47    49    50     9 
   45    47    49    51     9 
   45    47    49    52     9 
   48    47    49    50     9 
   48    47    49    51     9 
   48    47    49    52     9 
   55    47    49    50     9 
   55    47    49    51     9 
   55    47    49    52     9 
   45    47    55    56     9 
   45    47    55    57     9 
   48    47    55    56     9 
   48    47    55    57     9 
   49    47    55    56     9 
   49    47    55    57     9 
   47    49    52    53     9 
   47    49    52    54     9 
   50    49    52    53     9 
   50    49    52    54     9 
   51    49    52    53     9 
   51    49    52    54     9 
   47    55    57    58     9 
   47    55    57    61     9 
   56    55    57    58     9 
   56    55    57    61     9 
   55    57    58    59     9 
   55    57    58    60     9 
   55    57    58    66     9 
   61    57    58    59     9 
   61    57    58    60     9 
   61    57    58    66     9 
   55    57    61    62     9 
   55    57    61    63     9 
   55    57    61    69     9 
   58    57    61    62     9 
   58    57    61    63     9 
   58    57    61    69     9 
   57    58    66    63     9 
   57    58    66    67     9 
   57    58    66    68     9 
   59    58    66    63     9 
   59    58    66    67     9 
   59    58    66    68     9 
   60    58    66    63     9 
   60    58    66    67     9 
   60    58    66    68     9 
   57    61    63    64     9 
   57    61    63    65     9 
   57    61    63    66     9 
   62    61    63    64     9 
   62    61    63    65     9 
   62    61    63    66     9 
   69    61    63    64     9 
   69    61    63    65     9 
   69    61    63    66     9 
   57    61    69    70     9 
   57    61    69    71     9 
   62    61    69    70     9 
   62    61    69    71     9 
   63    61    69    70     9 
   63    61    69    71     9 
   61    63    66    58     9 
   61    63    66    67     9 
   61    63    66    68     9 
   64    63    66    58     9 
   64    63    66    67     9 
   64    63    66    68     9 
   65    63    66    58     9 
   65    63    66    67     9 
   65    63    66    68     9 
   61    69    71    72     9 
   61    69    71    73     9 
   70    69    71    72     9 
   70    69    71    73     9 
   69    71    73    74     9 
   69    71    73    75     9 
   69    71    73    76     9 
   72    71    73    74     9 
   72    71    73    75     9 
   72    71    73    76     9 
   71    73    76    77     9 
   71    73    76    78     9 
   74    73    76    77     9 
   74    73    76    78     9 
   75    73    76    77     9 
   75    73    76    78     9 
   73    76    78    79     9 
   73    76    78    80     9 
   77    76    78    79     9 
   77    76    78    80     9 
   76    78    80    81     9 
   76    78    80    82     9 
   76    78    80    90     9 
   79    78    80    81     9 
   79    78    80    82     9 
   79    78    80    90     9 
   78    80    82    83     9 
   78    80    82    84     9 
   78    80    82    86     9 
   81    80    82    83     9 
   81    80    82    84     9 
   81    80    82    86     9 
   90    80    82    83     9 
   90    80    82    84     9 
   90    80    82    86     9 
   78    80    90    91     9 
   78    80    90    92     9 
   81    80    90    91     9 
   81    80    90    92     9 
   82    80    90    91     9 
   82    80    90    92     9 
   80    82    84    85     9 
   83    82    84    85     9 
   86    82    84    85     9 
   80    82    86    87     9 
   80    82    86    88     9 
   80    82    86    89     9 
   83    82    86    87     9 
   83    82    86    88     9 
   83    82    86    89     9 
   84    82    86    87     9 
   84    82    86    88     9 
   84    82    86    89     9 
   80    90    92    93     9 
   80    90    92    94     9 
   91    90    92    93     9 
   91    90    92    94     9 
   90    92    94    95     9 
   90    92    94    96     9 
   90    92    94    97     9 
   93    92    94    95     9 
   93    92    94    96     9 
   93    92    94    97     9 
   92    94    97    98     9 
   92    94    97    99     9 
   95    94    97    98     9 
   95    94    97    99     9 
   96    94    97    98     9 
   96    94    97    99     9 
   94    97    99   100     9 
   94    97    99   101     9 
   98    97    99   100     9 
   98    97    99   101     9 
   97    99   101   102     9 
   97    99   101   103     9 
   97    99   101   111     9 
  100    99   101   102     9 
  100    99   101   103     9 
  100    99   101   111     9 
   99   101   103   104     9 
   99   101   103   105     9 
   99   101   103   107     9 
  102   101   103   104     9 
  102   101   103   105     9 
  102   101   103   107     9 
  111   101   103   104     9 
  111   101   103   105     9 
  111   101   103   107     9 
   99   101   111   112     9 
   99   101   111   113     9 
  102   101   111   112     9 
  102   101   111   113     9 
  103   101   111   112     9 
  103   101   111   113     9 
  101   103   105   106     9 
  104   103   105   106     9 
  107   103   105   106     9 
  101   103   107   108     9 
  101   103   107   109     9 
  101   103   107   110     9 
  104   103   107   108     9 
  104   103   107   109     9 
  104   103   107   110     9 
  105   103   107   108     9 
  105   103   107   109     9 
  105   103   107   110     9 
  101   111   113   114     9 
  101   111   113   115     9 
  112   111   113   114     9 
  112   111   113   115     9 
  111   113   115   116     9 
  111   113   115   117     9 
  111   113   115   135     9 
  114   113   115   116     9 
  114   113   115   117     9 
  114   113   115   135     9 
  113   115   117   118     9 
  113   115   117   119     9 
  113   115   117   120     9 
  116   115   117   118     9 
  116   115   117   119     9 
  116   115   117   120     9 
  135   115   117   118     9 
  135   115   117   119     9 
  135   115   117   120     9 
  113   115   135   136     9 
  113   115   135   137     9 
  116   115   135   136     9 
  116   115   135   137     9 
  117   115   135   136     9 
  117   115   135   137     9 
  115   117   120   121     9 
  115   117   120   126     9 
  118   117   120   121     9 
  118   117   120   126     9 
  119   117   120   121     9 
  119   117   120   126     9 
  117   120   121   122     9 
  117   120   121   123     9 
  126   120   121   122     9 
  126   120   121   123     9 
  117   120   126   125     9 
  117   120   126   127     9 
  121   120   126   125     9 
  121   120   126   127     9 
  120   121   123   124     9 
  120   121   123   125     9 
  122   121   123   124     9 
  122   121   123   125     9 
  121   123   125   126     9 
  121   123   125   131     9 
  124   123   125   126     9 
  124   123   125   131     9 
  123   125   126   120     9 
  123   125   126   127     9 
  131   125   126   120     9 
  131   125   126   127     9 
  123   125   131   132     9 
  123   125   131   133     9 
  126   125   131   132     9 
  126   125   131   133     9 
  120   126   127   128     9 
  120   126   127   129     9 
  125   126   127   128     9 
  125   126   127   129     9 
  126   127   129   130     9 
  126   127   129   133     9 
  128   127   129   130     9 
  128   127   129   133     9 
  127   129   133   131     9 
  127   129   133   134     9 
  130   129   133   131     9 
  130   129   133   134     9 
  125   131   133   129     9 
  125   131   133   134     9 
  132   131   133   129     9 
  132   131   133   134     9 
  115   135   137   138     9 
  115   135   137   139     9 
  136   135   137   138     9 
  136   135   137   139     9 
  135   137   139   140     9 
  135   137   139   141     9 
  135   137   139   156     9 
  138   137   139   140     9 
  138   137   139   141     9 
  138   137   139   156     9 
  137   139   141   142     9 
  137   139   141   143     9 
  137   139   141   144     9 
  140   139   141   142     9 
  140   139   141   143     9 
  140   139   141   144     9 
  156   139   141   142     9 
  156   139   141   143     9 
  156   139   141   144     9 
  137   139   156   157     9 
  137   139   156   158     9 
  140   139   156   157     9 
  140   139   156   158     9 
  141   139   156   157     9 
  141   139   156   158     9 
  139   141   144   145     9 
  139   141   144   152     9 
  142   141   144   145     9 
  142   141   144   152     9 
  143   141   144   145     9 
  143   141   144   152     9 
  141   144   145   146     9 
  141   144   145   147     9 
  152   144   145   146     9 
  152   144   145   147     9 
  141   144   152   153     9 
  141   144   152   154     9 
  145   144   152   153     9 
  145   144   152   154     9 
  144   145   147   148     9 
  144   145   147   149     9 
  146   145   147   148     9 
  146   145   147   149     9 
  145   147   149   150     9 
  145   147   149   154     9 
  148   147   149   150     9 
  148   147   149   154     9 
  147   149   150   151     9 
  154   149   150   151     9 
  147   149   154   152     9 
  147   149   154   155     9 
  150   149   154   152     9 
  150   149   154   155     9 
  144   152   154   149     9 
  144   152   154   155     9 
  153   152   154   149     9 
  153   152   154   155     9 

[ dihedrals ]
;  ai    aj    ak    al funct            c0            c1            c2            c3
   22     5    24    23     2 
   24    22    26    25     2 
   43    26    45    44     2 
   45    43    47    46     2 
   52    49    54    53     2 
   55    47    57    56     2 
   57    55    61    58     2 
   69    61    71    70     2 
   71    69    73    72     2 
   76    73    78    77     2 
   78    76    80    79     2 
   90    80    92    91     2 
   92    90    94    93     2 
   97    94    99    98     2 
   99    97   101   100     2 
  111   101   113   112     2 
  113   111   115   114     2 
  135   115   137   136     2 
  137   135   139   138     2 
  156   139   158   157     2 

[ cmap ]
;  ai    aj    ak    al    am funct
   55    57    61    69    71     1 
   69    71    73    76    78     1 
   90    92    94    97    99     1 

; Include Position restraint file
#ifdef POSRES
#include "posre.itp"
#endif

; Include water topology
#include "charmm22star.ff/tip3p.itp"

#ifdef POSRES_WATER
; Position restraint for each water oxygen
[ position_restraints ]
;  i funct       fcx        fcy        fcz
   1    1       1000       1000       1000
#endif

; Include topology for ions
#include "charmm22star.ff/ions.itp"

[ system ]
; Name
Protein in water

[ molecules ]
; Compound        #mols
Protein_chain_A     1
SOL         1467
NA               1
