;
;	File 'topol.top' was generated
;	By user: muralika.m (21947)
;	On host: zeus
;	At date: Thu Apr 10 11:43:48 2025
;
;	This is a standalone topology file
;
;	Created by:
;	                    :-) GROMACS - gmx pdb2gmx, 2019.6 (-:
;	
;	Executable:   /home/muralika.m/.conda/envs/muralika/bin/gmx_mpi
;	Data prefix:  /home/muralika.m/.conda/envs/muralika
;	Working dir:  /rg/mendels_prj/muralika.m/ub/New_mutns/YYDPETGYWY
;	Command line:
;	  gmx_mpi pdb2gmx -f YYDPETGYWY.pdb -o processed_structure.gro -p topol.top -asp -glu -ter
;	Force field was read from the standard GROMACS share directory.
;

; Include forcefield parameters
#include "charmm22star.ff/forcefield.itp"

[ moleculetype ]
; Name            nrexcl
Protein_chain_A     3

[ atoms ]
;   nr       type  resnr residue  atom   cgnr     charge       mass  typeB    chargeB      massB
; residue   0 TYR rtp TYR  q +1.0
     1        NH3      0    TYR      N      1       -0.3    14.0027
     2         HC      0    TYR     H1      2       0.33      1.008
     3         HC      0    TYR     H2      3       0.33      1.008
     4         HC      0    TYR     H3      4       0.33      1.008
     5        CT1      0    TYR     CA      5       0.21     12.011
     6         HB      0    TYR     HA      6        0.1      1.008
     7        CT2      0    TYR     CB      7      -0.18     12.011
     8         HA      0    TYR    HB1      8       0.09      1.008
     9         HA      0    TYR    HB2      9       0.09      1.008
    10         CA      0    TYR     CG     10          0     12.011
    11         CA      0    TYR    CD1     11     -0.115     12.011
    12         HP      0    TYR    HD1     12      0.115      1.008
    13         CA      0    TYR    CE1     13     -0.115     12.011
    14         HP      0    TYR    HE1     14      0.115      1.008
    15         CA      0    TYR     CZ     15       0.11     12.011
    16        OH1      0    TYR     OH     16      -0.54     15.999
    17          H      0    TYR     HH     17       0.43      1.008
    18         CA      0    TYR    CD2     18     -0.115     12.011
    19         HP      0    TYR    HD2     19      0.115      1.008
    20         CA      0    TYR    CE2     20     -0.115     12.011
    21         HP      0    TYR    HE2     21      0.115      1.008
    22          C      0    TYR      C     22       0.51     12.011
    23          O      0    TYR      O     23      -0.51     15.999   ; qtot 1
; residue   1 TYR rtp TYR  q  0.0
    24        NH1      1    TYR      N     24      -0.47     14.007
    25          H      1    TYR     HN     25       0.31      1.008
    26        CT1      1    TYR     CA     26       0.07     12.011
    27         HB      1    TYR     HA     27       0.09      1.008
    28        CT2      1    TYR     CB     28      -0.18     12.011
    29         HA      1    TYR    HB1     29       0.09      1.008
    30         HA      1    TYR    HB2     30       0.09      1.008
    31         CA      1    TYR     CG     31          0     12.011
    32         CA      1    TYR    CD1     32     -0.115     12.011
    33         HP      1    TYR    HD1     33      0.115      1.008
    34         CA      1    TYR    CE1     34     -0.115     12.011
    35         HP      1    TYR    HE1     35      0.115      1.008
    36         CA      1    TYR     CZ     36       0.11     12.011
    37        OH1      1    TYR     OH     37      -0.54     15.999
    38          H      1    TYR     HH     38       0.43      1.008
    39         CA      1    TYR    CD2     39     -0.115     12.011
    40         HP      1    TYR    HD2     40      0.115      1.008
    41         CA      1    TYR    CE2     41     -0.115     12.011
    42         HP      1    TYR    HE2     42      0.115      1.008
    43          C      1    TYR      C     43       0.51     12.011
    44          O      1    TYR      O     44      -0.51     15.999   ; qtot 1
; residue   2 ASP rtp ASP  q -1.0
    45        NH1      2    ASP      N     45      -0.47     14.007
    46          H      2    ASP     HN     46       0.31      1.008
    47        CT1      2    ASP     CA     47       0.07     12.011
    48         HB      2    ASP     HA     48       0.09      1.008
    49        CT2      2    ASP     CB     49      -0.28     12.011
    50         HA      2    ASP    HB1     50       0.05      1.008
    51         HA      2    ASP    HB2     51       0.05      1.008
    52         CC      2    ASP     CG     52       0.56     12.011
    53         OC      2    ASP    OD1     53      -0.69     15.999
    54         OC      2    ASP    OD2     54      -0.69     15.999
    55          C      2    ASP      C     55       0.51     12.011
    56          O      2    ASP      O     56      -0.51     15.999   ; qtot 0
; residue   3 PRO rtp PRO  q  0.0
    57          N      3    PRO      N     57      -0.29     14.007
    58        CP3      3    PRO     CD     58          0     12.011
    59         HA      3    PRO    HD1     59       0.09      1.008
    60         HA      3    PRO    HD2     60       0.09      1.008
    61        CP1      3    PRO     CA     61       0.02     12.011
    62         HB      3    PRO     HA     62       0.09      1.008
    63        CP2      3    PRO     CB     63      -0.18     12.011
    64         HA      3    PRO    HB1     64       0.09      1.008
    65         HA      3    PRO    HB2     65       0.09      1.008
    66        CP2      3    PRO     CG     66      -0.18     12.011
    67         HA      3    PRO    HG1     67       0.09      1.008
    68         HA      3    PRO    HG2     68       0.09      1.008
    69          C      3    PRO      C     69       0.51     12.011
    70          O      3    PRO      O     70      -0.51     15.999   ; qtot 0
; residue   4 GLU rtp GLU  q -1.0
    71        NH1      4    GLU      N     71      -0.47     14.007
    72          H      4    GLU     HN     72       0.31      1.008
    73        CT1      4    GLU     CA     73       0.07     12.011
    74         HB      4    GLU     HA     74       0.09      1.008
    75        CT2      4    GLU     CB     75      -0.18     12.011
    76         HA      4    GLU    HB1     76       0.09      1.008
    77         HA      4    GLU    HB2     77       0.09      1.008
    78        CT2      4    GLU     CG     78      -0.28     12.011
    79         HA      4    GLU    HG1     79       0.05      1.008
    80         HA      4    GLU    HG2     80       0.05      1.008
    81         CC      4    GLU     CD     81       0.56     12.011
    82         OC      4    GLU    OE1     82      -0.69     15.999
    83         OC      4    GLU    OE2     83      -0.69     15.999
    84          C      4    GLU      C     84       0.51     12.011
    85          O      4    GLU      O     85      -0.51     15.999   ; qtot -1
; residue   5 THR rtp THR  q  0.0
    86        NH1      5    THR      N     86      -0.47     14.007
    87          H      5    THR     HN     87       0.31      1.008
    88        CT1      5    THR     CA     88       0.07     12.011
    89         HB      5    THR     HA     89       0.09      1.008
    90        CT1      5    THR     CB     90       0.14     12.011
    91         HA      5    THR     HB     91       0.09      1.008
    92        OH1      5    THR    OG1     92      -0.66     15.999
    93          H      5    THR    HG1     93       0.43      1.008
    94        CT3      5    THR    CG2     94      -0.27     12.011
    95         HA      5    THR   HG21     95       0.09      1.008
    96         HA      5    THR   HG22     96       0.09      1.008
    97         HA      5    THR   HG23     97       0.09      1.008
    98          C      5    THR      C     98       0.51     12.011
    99          O      5    THR      O     99      -0.51     15.999   ; qtot -1
; residue   6 GLY rtp GLY  q  0.0
   100        NH1      6    GLY      N    100      -0.47     14.007
   101          H      6    GLY     HN    101       0.31      1.008
   102        CT2      6    GLY     CA    102      -0.02     12.011
   103         HB      6    GLY    HA1    103       0.09      1.008
   104         HB      6    GLY    HA2    104       0.09      1.008
   105          C      6    GLY      C    105       0.51     12.011
   106          O      6    GLY      O    106      -0.51     15.999   ; qtot -1
; residue   7 TYR rtp TYR  q  0.0
   107        NH1      7    TYR      N    107      -0.47     14.007
   108          H      7    TYR     HN    108       0.31      1.008
   109        CT1      7    TYR     CA    109       0.07     12.011
   110         HB      7    TYR     HA    110       0.09      1.008
   111        CT2      7    TYR     CB    111      -0.18     12.011
   112         HA      7    TYR    HB1    112       0.09      1.008
   113         HA      7    TYR    HB2    113       0.09      1.008
   114         CA      7    TYR     CG    114          0     12.011
   115         CA      7    TYR    CD1    115     -0.115     12.011
   116         HP      7    TYR    HD1    116      0.115      1.008
   117         CA      7    TYR    CE1    117     -0.115     12.011
   118         HP      7    TYR    HE1    118      0.115      1.008
   119         CA      7    TYR     CZ    119       0.11     12.011
   120        OH1      7    TYR     OH    120      -0.54     15.999
   121          H      7    TYR     HH    121       0.43      1.008
   122         CA      7    TYR    CD2    122     -0.115     12.011
   123         HP      7    TYR    HD2    123      0.115      1.008
   124         CA      7    TYR    CE2    124     -0.115     12.011
   125         HP      7    TYR    HE2    125      0.115      1.008
   126          C      7    TYR      C    126       0.51     12.011
   127          O      7    TYR      O    127      -0.51     15.999   ; qtot -1
; residue   8 TRP rtp TRP  q  0.0
   128        NH1      8    TRP      N    128      -0.47     14.007
   129          H      8    TRP     HN    129       0.31      1.008
   130        CT1      8    TRP     CA    130       0.07     12.011
   131         HB      8    TRP     HA    131       0.09      1.008
   132        CT2      8    TRP     CB    132      -0.18     12.011
   133         HA      8    TRP    HB1    133       0.09      1.008
   134         HA      8    TRP    HB2    134       0.09      1.008
   135         CY      8    TRP     CG    135      -0.03     12.011
   136         CA      8    TRP    CD1    136      0.035     12.011
   137         HP      8    TRP    HD1    137      0.115      1.008
   138         NY      8    TRP    NE1    138      -0.61     14.007
   139          H      8    TRP    HE1    139       0.38      1.008
   140        CPT      8    TRP    CE2    140       0.13     12.011
   141        CPT      8    TRP    CD2    141      -0.02     12.011
   142         CA      8    TRP    CE3    142     -0.115     12.011
   143         HP      8    TRP    HE3    143      0.115      1.008
   144         CA      8    TRP    CZ3    144     -0.115     12.011
   145         HP      8    TRP    HZ3    145      0.115      1.008
   146         CA      8    TRP    CZ2    146     -0.115     12.011
   147         HP      8    TRP    HZ2    147      0.115      1.008
   148         CA      8    TRP    CH2    148     -0.115     12.011
   149         HP      8    TRP    HH2    149      0.115      1.008
   150          C      8    TRP      C    150       0.51     12.011
   151          O      8    TRP      O    151      -0.51     15.999   ; qtot -1
; residue   9 TYR rtp TYR  q -1.0
   152        NH1      9    TYR      N    152      -0.47     14.007
   153          H      9    TYR     HN    153       0.31      1.008
   154        CT1      9    TYR     CA    154       0.07     12.011
   155         HB      9    TYR     HA    155       0.09      1.008
   156        CT2      9    TYR     CB    156      -0.18     12.011
   157         HA      9    TYR    HB1    157       0.09      1.008
   158         HA      9    TYR    HB2    158       0.09      1.008
   159         CA      9    TYR     CG    159          0     12.011
   160         CA      9    TYR    CD1    160     -0.115     12.011
   161         HP      9    TYR    HD1    161      0.115      1.008
   162         CA      9    TYR    CE1    162     -0.115     12.011
   163         HP      9    TYR    HE1    163      0.115      1.008
   164         CA      9    TYR     CZ    164       0.11     12.011
   165        OH1      9    TYR     OH    165      -0.54     15.999
   166          H      9    TYR     HH    166       0.43      1.008
   167         CA      9    TYR    CD2    167     -0.115     12.011
   168         HP      9    TYR    HD2    168      0.115      1.008
   169         CA      9    TYR    CE2    169     -0.115     12.011
   170         HP      9    TYR    HE2    170      0.115      1.008
   171         CC      9    TYR      C    171       0.34     12.011
   172         OC      9    TYR    OT1    172      -0.67    15.9994
   173         OC      9    TYR    OT2    173      -0.67    15.9994   ; qtot -2

[ bonds ]
;  ai    aj funct            c0            c1            c2            c3
    1     2     1 
    1     3     1 
    1     4     1 
    1     5     1 
    5     6     1 
    5     7     1 
    5    22     1 
    7     8     1 
    7     9     1 
    7    10     1 
   10    11     1 
   10    18     1 
   11    12     1 
   11    13     1 
   13    14     1 
   13    15     1 
   15    16     1 
   15    20     1 
   16    17     1 
   18    19     1 
   18    20     1 
   20    21     1 
   22    23     1 
   22    24     1 
   24    25     1 
   24    26     1 
   26    27     1 
   26    28     1 
   26    43     1 
   28    29     1 
   28    30     1 
   28    31     1 
   31    32     1 
   31    39     1 
   32    33     1 
   32    34     1 
   34    35     1 
   34    36     1 
   36    37     1 
   36    41     1 
   37    38     1 
   39    40     1 
   39    41     1 
   41    42     1 
   43    44     1 
   43    45     1 
   45    46     1 
   45    47     1 
   47    48     1 
   47    49     1 
   47    55     1 
   49    50     1 
   49    51     1 
   49    52     1 
   52    53     1 
   52    54     1 
   55    56     1 
   55    57     1 
   57    58     1 
   57    61     1 
   58    59     1 
   58    60     1 
   58    66     1 
   61    62     1 
   61    63     1 
   61    69     1 
   63    64     1 
   63    65     1 
   63    66     1 
   66    67     1 
   66    68     1 
   69    70     1 
   69    71     1 
   71    72     1 
   71    73     1 
   73    74     1 
   73    75     1 
   73    84     1 
   75    76     1 
   75    77     1 
   75    78     1 
   78    79     1 
   78    80     1 
   78    81     1 
   81    82     1 
   81    83     1 
   84    85     1 
   84    86     1 
   86    87     1 
   86    88     1 
   88    89     1 
   88    90     1 
   88    98     1 
   90    91     1 
   90    92     1 
   90    94     1 
   92    93     1 
   94    95     1 
   94    96     1 
   94    97     1 
   98    99     1 
   98   100     1 
  100   101     1 
  100   102     1 
  102   103     1 
  102   104     1 
  102   105     1 
  105   106     1 
  105   107     1 
  107   108     1 
  107   109     1 
  109   110     1 
  109   111     1 
  109   126     1 
  111   112     1 
  111   113     1 
  111   114     1 
  114   115     1 
  114   122     1 
  115   116     1 
  115   117     1 
  117   118     1 
  117   119     1 
  119   120     1 
  119   124     1 
  120   121     1 
  122   123     1 
  122   124     1 
  124   125     1 
  126   127     1 
  126   128     1 
  128   129     1 
  128   130     1 
  130   131     1 
  130   132     1 
  130   150     1 
  132   133     1 
  132   134     1 
  132   135     1 
  135   136     1 
  135   141     1 
  136   137     1 
  136   138     1 
  138   139     1 
  138   140     1 
  140   141     1 
  140   146     1 
  141   142     1 
  142   143     1 
  142   144     1 
  144   145     1 
  144   148     1 
  146   147     1 
  146   148     1 
  148   149     1 
  150   151     1 
  150   152     1 
  152   153     1 
  152   154     1 
  154   155     1 
  154   156     1 
  154   171     1 
  156   157     1 
  156   158     1 
  156   159     1 
  159   160     1 
  159   167     1 
  160   161     1 
  160   162     1 
  162   163     1 
  162   164     1 
  164   165     1 
  164   169     1 
  165   166     1 
  167   168     1 
  167   169     1 
  169   170     1 
  171   172     1 
  171   173     1 

[ pairs ]
;  ai    aj funct            c0            c1            c2            c3
    1     8     1 
    1     9     1 
    1    10     1 
    1    23     1 
    1    24     1 
    2     6     1 
    2     7     1 
    2    22     1 
    3     6     1 
    3     7     1 
    3    22     1 
    4     6     1 
    4     7     1 
    4    22     1 
    5    11     1 
    5    18     1 
    5    25     1 
    5    26     1 
    6     8     1 
    6     9     1 
    6    10     1 
    6    23     1 
    6    24     1 
    7    12     1 
    7    13     1 
    7    19     1 
    7    20     1 
    7    23     1 
    7    24     1 
    8    11     1 
    8    18     1 
    8    22     1 
    9    11     1 
    9    18     1 
    9    22     1 
   10    14     1 
   10    15     1 
   10    21     1 
   10    22     1 
   11    16     1 
   11    19     1 
   11    20     1 
   12    14     1 
   12    15     1 
   12    18     1 
   13    17     1 
   13    18     1 
   13    21     1 
   14    16     1 
   14    20     1 
   15    19     1 
   16    18     1 
   16    21     1 
   17    20     1 
   19    21     1 
   22    27     1 
   22    28     1 
   22    43     1 
   23    25     1 
   23    26     1 
   24    29     1 
   24    30     1 
   24    31     1 
   24    44     1 
   24    45     1 
   25    27     1 
   25    28     1 
   25    43     1 
   26    32     1 
   26    39     1 
   26    46     1 
   26    47     1 
   27    29     1 
   27    30     1 
   27    31     1 
   27    44     1 
   27    45     1 
   28    33     1 
   28    34     1 
   28    40     1 
   28    41     1 
   28    44     1 
   28    45     1 
   29    32     1 
   29    39     1 
   29    43     1 
   30    32     1 
   30    39     1 
   30    43     1 
   31    35     1 
   31    36     1 
   31    42     1 
   31    43     1 
   32    37     1 
   32    40     1 
   32    41     1 
   33    35     1 
   33    36     1 
   33    39     1 
   34    38     1 
   34    39     1 
   34    42     1 
   35    37     1 
   35    41     1 
   36    40     1 
   37    39     1 
   37    42     1 
   38    41     1 
   40    42     1 
   43    48     1 
   43    49     1 
   43    55     1 
   44    46     1 
   44    47     1 
   45    50     1 
   45    51     1 
   45    52     1 
   45    56     1 
   45    57     1 
   46    48     1 
   46    49     1 
   46    55     1 
   47    53     1 
   47    54     1 
   47    58     1 
   47    61     1 
   48    50     1 
   48    51     1 
   48    52     1 
   48    56     1 
   48    57     1 
   49    56     1 
   49    57     1 
   50    53     1 
   50    54     1 
   50    55     1 
   51    53     1 
   51    54     1 
   51    55     1 
   52    55     1 
   55    59     1 
   55    60     1 
   55    62     1 
   55    63     1 
   55    66     1 
   55    69     1 
   56    58     1 
   56    61     1 
   57    64     1 
   57    65     1 
   57    67     1 
   57    68     1 
   57    70     1 
   57    71     1 
   58    62     1 
   58    64     1 
   58    65     1 
   58    69     1 
   59    61     1 
   59    63     1 
   59    67     1 
   59    68     1 
   60    61     1 
   60    63     1 
   60    67     1 
   60    68     1 
   61    67     1 
   61    68     1 
   61    72     1 
   61    73     1 
   62    64     1 
   62    65     1 
   62    66     1 
   62    70     1 
   62    71     1 
   63    70     1 
   63    71     1 
   64    67     1 
   64    68     1 
   64    69     1 
   65    67     1 
   65    68     1 
   65    69     1 
   66    69     1 
   69    74     1 
   69    75     1 
   69    84     1 
   70    72     1 
   70    73     1 
   71    76     1 
   71    77     1 
   71    78     1 
   71    85     1 
   71    86     1 
   72    74     1 
   72    75     1 
   72    84     1 
   73    79     1 
   73    80     1 
   73    81     1 
   73    87     1 
   73    88     1 
   74    76     1 
   74    77     1 
   74    78     1 
   74    85     1 
   74    86     1 
   75    82     1 
   75    83     1 
   75    85     1 
   75    86     1 
   76    79     1 
   76    80     1 
   76    81     1 
   76    84     1 
   77    79     1 
   77    80     1 
   77    81     1 
   77    84     1 
   78    84     1 
   79    82     1 
   79    83     1 
   80    82     1 
   80    83     1 
   84    89     1 
   84    90     1 
   84    98     1 
   85    87     1 
   85    88     1 
   86    91     1 
   86    92     1 
   86    94     1 
   86    99     1 
   86   100     1 
   87    89     1 
   87    90     1 
   87    98     1 
   88    93     1 
   88    95     1 
   88    96     1 
   88    97     1 
   88   101     1 
   88   102     1 
   89    91     1 
   89    92     1 
   89    94     1 
   89    99     1 
   89   100     1 
   90    99     1 
   90   100     1 
   91    93     1 
   91    95     1 
   91    96     1 
   91    97     1 
   91    98     1 
   92    95     1 
   92    96     1 
   92    97     1 
   92    98     1 
   93    94     1 
   94    98     1 
   98   103     1 
   98   104     1 
   98   105     1 
   99   101     1 
   99   102     1 
  100   106     1 
  100   107     1 
  101   103     1 
  101   104     1 
  101   105     1 
  102   108     1 
  102   109     1 
  103   106     1 
  103   107     1 
  104   106     1 
  104   107     1 
  105   110     1 
  105   111     1 
  105   126     1 
  106   108     1 
  106   109     1 
  107   112     1 
  107   113     1 
  107   114     1 
  107   127     1 
  107   128     1 
  108   110     1 
  108   111     1 
  108   126     1 
  109   115     1 
  109   122     1 
  109   129     1 
  109   130     1 
  110   112     1 
  110   113     1 
  110   114     1 
  110   127     1 
  110   128     1 
  111   116     1 
  111   117     1 
  111   123     1 
  111   124     1 
  111   127     1 
  111   128     1 
  112   115     1 
  112   122     1 
  112   126     1 
  113   115     1 
  113   122     1 
  113   126     1 
  114   118     1 
  114   119     1 
  114   125     1 
  114   126     1 
  115   120     1 
  115   123     1 
  115   124     1 
  116   118     1 
  116   119     1 
  116   122     1 
  117   121     1 
  117   122     1 
  117   125     1 
  118   120     1 
  118   124     1 
  119   123     1 
  120   122     1 
  120   125     1 
  121   124     1 
  123   125     1 
  126   131     1 
  126   132     1 
  126   150     1 
  127   129     1 
  127   130     1 
  128   133     1 
  128   134     1 
  128   135     1 
  128   151     1 
  128   152     1 
  129   131     1 
  129   132     1 
  129   150     1 
  130   136     1 
  130   141     1 
  130   153     1 
  130   154     1 
  131   133     1 
  131   134     1 
  131   135     1 
  131   151     1 
  131   152     1 
  132   137     1 
  132   138     1 
  132   140     1 
  132   142     1 
  132   151     1 
  132   152     1 
  133   136     1 
  133   141     1 
  133   150     1 
  134   136     1 
  134   141     1 
  134   150     1 
  135   139     1 
  135   143     1 
  135   144     1 
  135   146     1 
  135   150     1 
  136   142     1 
  136   146     1 
  137   139     1 
  137   140     1 
  137   141     1 
  138   142     1 
  138   147     1 
  138   148     1 
  139   141     1 
  139   146     1 
  140   143     1 
  140   144     1 
  140   149     1 
  141   145     1 
  141   147     1 
  141   148     1 
  142   146     1 
  142   149     1 
  143   145     1 
  143   148     1 
  144   147     1 
  145   146     1 
  145   149     1 
  147   149     1 
  150   155     1 
  150   156     1 
  150   171     1 
  151   153     1 
  151   154     1 
  152   157     1 
  152   158     1 
  152   159     1 
  152   172     1 
  152   173     1 
  153   155     1 
  153   156     1 
  153   171     1 
  154   160     1 
  154   167     1 
  155   157     1 
  155   158     1 
  155   159     1 
  155   172     1 
  155   173     1 
  156   161     1 
  156   162     1 
  156   168     1 
  156   169     1 
  156   172     1 
  156   173     1 
  157   160     1 
  157   167     1 
  157   171     1 
  158   160     1 
  158   167     1 
  158   171     1 
  159   163     1 
  159   164     1 
  159   170     1 
  159   171     1 
  160   165     1 
  160   168     1 
  160   169     1 
  161   163     1 
  161   164     1 
  161   167     1 
  162   166     1 
  162   167     1 
  162   170     1 
  163   165     1 
  163   169     1 
  164   168     1 
  165   167     1 
  165   170     1 
  166   169     1 
  168   170     1 

[ angles ]
;  ai    aj    ak funct            c0            c1            c2            c3
    2     1     3     5 
    2     1     4     5 
    2     1     5     5 
    3     1     4     5 
    3     1     5     5 
    4     1     5     5 
    1     5     6     5 
    1     5     7     5 
    1     5    22     5 
    6     5     7     5 
    6     5    22     5 
    7     5    22     5 
    5     7     8     5 
    5     7     9     5 
    5     7    10     5 
    8     7     9     5 
    8     7    10     5 
    9     7    10     5 
    7    10    11     5 
    7    10    18     5 
   11    10    18     5 
   10    11    12     5 
   10    11    13     5 
   12    11    13     5 
   11    13    14     5 
   11    13    15     5 
   14    13    15     5 
   13    15    16     5 
   13    15    20     5 
   16    15    20     5 
   15    16    17     5 
   10    18    19     5 
   10    18    20     5 
   19    18    20     5 
   15    20    18     5 
   15    20    21     5 
   18    20    21     5 
    5    22    23     5 
    5    22    24     5 
   23    22    24     5 
   22    24    25     5 
   22    24    26     5 
   25    24    26     5 
   24    26    27     5 
   24    26    28     5 
   24    26    43     5 
   27    26    28     5 
   27    26    43     5 
   28    26    43     5 
   26    28    29     5 
   26    28    30     5 
   26    28    31     5 
   29    28    30     5 
   29    28    31     5 
   30    28    31     5 
   28    31    32     5 
   28    31    39     5 
   32    31    39     5 
   31    32    33     5 
   31    32    34     5 
   33    32    34     5 
   32    34    35     5 
   32    34    36     5 
   35    34    36     5 
   34    36    37     5 
   34    36    41     5 
   37    36    41     5 
   36    37    38     5 
   31    39    40     5 
   31    39    41     5 
   40    39    41     5 
   36    41    39     5 
   36    41    42     5 
   39    41    42     5 
   26    43    44     5 
   26    43    45     5 
   44    43    45     5 
   43    45    46     5 
   43    45    47     5 
   46    45    47     5 
   45    47    48     5 
   45    47    49     5 
   45    47    55     5 
   48    47    49     5 
   48    47    55     5 
   49    47    55     5 
   47    49    50     5 
   47    49    51     5 
   47    49    52     5 
   50    49    51     5 
   50    49    52     5 
   51    49    52     5 
   49    52    53     5 
   49    52    54     5 
   53    52    54     5 
   47    55    56     5 
   47    55    57     5 
   56    55    57     5 
   55    57    58     5 
   55    57    61     5 
   58    57    61     5 
   57    58    59     5 
   57    58    60     5 
   57    58    66     5 
   59    58    60     5 
   59    58    66     5 
   60    58    66     5 
   57    61    62     5 
   57    61    63     5 
   57    61    69     5 
   62    61    63     5 
   62    61    69     5 
   63    61    69     5 
   61    63    64     5 
   61    63    65     5 
   61    63    66     5 
   64    63    65     5 
   64    63    66     5 
   65    63    66     5 
   58    66    63     5 
   58    66    67     5 
   58    66    68     5 
   63    66    67     5 
   63    66    68     5 
   67    66    68     5 
   61    69    70     5 
   61    69    71     5 
   70    69    71     5 
   69    71    72     5 
   69    71    73     5 
   72    71    73     5 
   71    73    74     5 
   71    73    75     5 
   71    73    84     5 
   74    73    75     5 
   74    73    84     5 
   75    73    84     5 
   73    75    76     5 
   73    75    77     5 
   73    75    78     5 
   76    75    77     5 
   76    75    78     5 
   77    75    78     5 
   75    78    79     5 
   75    78    80     5 
   75    78    81     5 
   79    78    80     5 
   79    78    81     5 
   80    78    81     5 
   78    81    82     5 
   78    81    83     5 
   82    81    83     5 
   73    84    85     5 
   73    84    86     5 
   85    84    86     5 
   84    86    87     5 
   84    86    88     5 
   87    86    88     5 
   86    88    89     5 
   86    88    90     5 
   86    88    98     5 
   89    88    90     5 
   89    88    98     5 
   90    88    98     5 
   88    90    91     5 
   88    90    92     5 
   88    90    94     5 
   91    90    92     5 
   91    90    94     5 
   92    90    94     5 
   90    92    93     5 
   90    94    95     5 
   90    94    96     5 
   90    94    97     5 
   95    94    96     5 
   95    94    97     5 
   96    94    97     5 
   88    98    99     5 
   88    98   100     5 
   99    98   100     5 
   98   100   101     5 
   98   100   102     5 
  101   100   102     5 
  100   102   103     5 
  100   102   104     5 
  100   102   105     5 
  103   102   104     5 
  103   102   105     5 
  104   102   105     5 
  102   105   106     5 
  102   105   107     5 
  106   105   107     5 
  105   107   108     5 
  105   107   109     5 
  108   107   109     5 
  107   109   110     5 
  107   109   111     5 
  107   109   126     5 
  110   109   111     5 
  110   109   126     5 
  111   109   126     5 
  109   111   112     5 
  109   111   113     5 
  109   111   114     5 
  112   111   113     5 
  112   111   114     5 
  113   111   114     5 
  111   114   115     5 
  111   114   122     5 
  115   114   122     5 
  114   115   116     5 
  114   115   117     5 
  116   115   117     5 
  115   117   118     5 
  115   117   119     5 
  118   117   119     5 
  117   119   120     5 
  117   119   124     5 
  120   119   124     5 
  119   120   121     5 
  114   122   123     5 
  114   122   124     5 
  123   122   124     5 
  119   124   122     5 
  119   124   125     5 
  122   124   125     5 
  109   126   127     5 
  109   126   128     5 
  127   126   128     5 
  126   128   129     5 
  126   128   130     5 
  129   128   130     5 
  128   130   131     5 
  128   130   132     5 
  128   130   150     5 
  131   130   132     5 
  131   130   150     5 
  132   130   150     5 
  130   132   133     5 
  130   132   134     5 
  130   132   135     5 
  133   132   134     5 
  133   132   135     5 
  134   132   135     5 
  132   135   136     5 
  132   135   141     5 
  136   135   141     5 
  135   136   137     5 
  135   136   138     5 
  137   136   138     5 
  136   138   139     5 
  136   138   140     5 
  139   138   140     5 
  138   140   141     5 
  138   140   146     5 
  141   140   146     5 
  135   141   140     5 
  135   141   142     5 
  140   141   142     5 
  141   142   143     5 
  141   142   144     5 
  143   142   144     5 
  142   144   145     5 
  142   144   148     5 
  145   144   148     5 
  140   146   147     5 
  140   146   148     5 
  147   146   148     5 
  144   148   146     5 
  144   148   149     5 
  146   148   149     5 
  130   150   151     5 
  130   150   152     5 
  151   150   152     5 
  150   152   153     5 
  150   152   154     5 
  153   152   154     5 
  152   154   155     5 
  152   154   156     5 
  152   154   171     5 
  155   154   156     5 
  155   154   171     5 
  156   154   171     5 
  154   156   157     5 
  154   156   158     5 
  154   156   159     5 
  157   156   158     5 
  157   156   159     5 
  158   156   159     5 
  156   159   160     5 
  156   159   167     5 
  160   159   167     5 
  159   160   161     5 
  159   160   162     5 
  161   160   162     5 
  160   162   163     5 
  160   162   164     5 
  163   162   164     5 
  162   164   165     5 
  162   164   169     5 
  165   164   169     5 
  164   165   166     5 
  159   167   168     5 
  159   167   169     5 
  168   167   169     5 
  164   169   167     5 
  164   169   170     5 
  167   169   170     5 
  154   171   172     5 
  154   171   173     5 
  172   171   173     5 

[ dihedrals ]
;  ai    aj    ak    al funct            c0            c1            c2            c3            c4            c5
    2     1     5     6     9 
    2     1     5     7     9 
    2     1     5    22     9 
    3     1     5     6     9 
    3     1     5     7     9 
    3     1     5    22     9 
    4     1     5     6     9 
    4     1     5     7     9 
    4     1     5    22     9 
    1     5     7     8     9 
    1     5     7     9     9 
    1     5     7    10     9 
    6     5     7     8     9 
    6     5     7     9     9 
    6     5     7    10     9 
   22     5     7     8     9 
   22     5     7     9     9 
   22     5     7    10     9 
    1     5    22    23     9 
    1     5    22    24     9 
    6     5    22    23     9 
    6     5    22    24     9 
    7     5    22    23     9 
    7     5    22    24     9 
    5     7    10    11     9 
    5     7    10    18     9 
    8     7    10    11     9 
    8     7    10    18     9 
    9     7    10    11     9 
    9     7    10    18     9 
    7    10    11    12     9 
    7    10    11    13     9 
   18    10    11    12     9 
   18    10    11    13     9 
    7    10    18    19     9 
    7    10    18    20     9 
   11    10    18    19     9 
   11    10    18    20     9 
   10    11    13    14     9 
   10    11    13    15     9 
   12    11    13    14     9 
   12    11    13    15     9 
   11    13    15    16     9 
   11    13    15    20     9 
   14    13    15    16     9 
   14    13    15    20     9 
   13    15    16    17     9 
   20    15    16    17     9 
   13    15    20    18     9 
   13    15    20    21     9 
   16    15    20    18     9 
   16    15    20    21     9 
   10    18    20    15     9 
   10    18    20    21     9 
   19    18    20    15     9 
   19    18    20    21     9 
    5    22    24    25     9 
    5    22    24    26     9 
   23    22    24    25     9 
   23    22    24    26     9 
   22    24    26    27     9 
   22    24    26    28     9 
   22    24    26    43     9 
   25    24    26    27     9 
   25    24    26    28     9 
   25    24    26    43     9 
   24    26    28    29     9 
   24    26    28    30     9 
   24    26    28    31     9 
   27    26    28    29     9 
   27    26    28    30     9 
   27    26    28    31     9 
   43    26    28    29     9 
   43    26    28    30     9 
   43    26    28    31     9 
   24    26    43    44     9 
   24    26    43    45     9 
   27    26    43    44     9 
   27    26    43    45     9 
   28    26    43    44     9 
   28    26    43    45     9 
   26    28    31    32     9 
   26    28    31    39     9 
   29    28    31    32     9 
   29    28    31    39     9 
   30    28    31    32     9 
   30    28    31    39     9 
   28    31    32    33     9 
   28    31    32    34     9 
   39    31    32    33     9 
   39    31    32    34     9 
   28    31    39    40     9 
   28    31    39    41     9 
   32    31    39    40     9 
   32    31    39    41     9 
   31    32    34    35     9 
   31    32    34    36     9 
   33    32    34    35     9 
   33    32    34    36     9 
   32    34    36    37     9 
   32    34    36    41     9 
   35    34    36    37     9 
   35    34    36    41     9 
   34    36    37    38     9 
   41    36    37    38     9 
   34    36    41    39     9 
   34    36    41    42     9 
   37    36    41    39     9 
   37    36    41    42     9 
   31    39    41    36     9 
   31    39    41    42     9 
   40    39    41    36     9 
   40    39    41    42     9 
   26    43    45    46     9 
   26    43    45    47     9 
   44    43    45    46     9 
   44    43    45    47     9 
   43    45    47    48     9 
   43    45    47    49     9 
   43    45    47    55     9 
   46    45    47    48     9 
   46    45    47    49     9 
   46    45    47    55     9 
   45    47    49    50     9 
   45    47    49    51     9 
   45    47    49    52     9 
   48    47    49    50     9 
   48    47    49    51     9 
   48    47    49    52     9 
   55    47    49    50     9 
   55    47    49    51     9 
   55    47    49    52     9 
   45    47    55    56     9 
   45    47    55    57     9 
   48    47    55    56     9 
   48    47    55    57     9 
   49    47    55    56     9 
   49    47    55    57     9 
   47    49    52    53     9 
   47    49    52    54     9 
   50    49    52    53     9 
   50    49    52    54     9 
   51    49    52    53     9 
   51    49    52    54     9 
   47    55    57    58     9 
   47    55    57    61     9 
   56    55    57    58     9 
   56    55    57    61     9 
   55    57    58    59     9 
   55    57    58    60     9 
   55    57    58    66     9 
   61    57    58    59     9 
   61    57    58    60     9 
   61    57    58    66     9 
   55    57    61    62     9 
   55    57    61    63     9 
   55    57    61    69     9 
   58    57    61    62     9 
   58    57    61    63     9 
   58    57    61    69     9 
   57    58    66    63     9 
   57    58    66    67     9 
   57    58    66    68     9 
   59    58    66    63     9 
   59    58    66    67     9 
   59    58    66    68     9 
   60    58    66    63     9 
   60    58    66    67     9 
   60    58    66    68     9 
   57    61    63    64     9 
   57    61    63    65     9 
   57    61    63    66     9 
   62    61    63    64     9 
   62    61    63    65     9 
   62    61    63    66     9 
   69    61    63    64     9 
   69    61    63    65     9 
   69    61    63    66     9 
   57    61    69    70     9 
   57    61    69    71     9 
   62    61    69    70     9 
   62    61    69    71     9 
   63    61    69    70     9 
   63    61    69    71     9 
   61    63    66    58     9 
   61    63    66    67     9 
   61    63    66    68     9 
   64    63    66    58     9 
   64    63    66    67     9 
   64    63    66    68     9 
   65    63    66    58     9 
   65    63    66    67     9 
   65    63    66    68     9 
   61    69    71    72     9 
   61    69    71    73     9 
   70    69    71    72     9 
   70    69    71    73     9 
   69    71    73    74     9 
   69    71    73    75     9 
   69    71    73    84     9 
   72    71    73    74     9 
   72    71    73    75     9 
   72    71    73    84     9 
   71    73    75    76     9 
   71    73    75    77     9 
   71    73    75    78     9 
   74    73    75    76     9 
   74    73    75    77     9 
   74    73    75    78     9 
   84    73    75    76     9 
   84    73    75    77     9 
   84    73    75    78     9 
   71    73    84    85     9 
   71    73    84    86     9 
   74    73    84    85     9 
   74    73    84    86     9 
   75    73    84    85     9 
   75    73    84    86     9 
   73    75    78    79     9 
   73    75    78    80     9 
   73    75    78    81     9 
   76    75    78    79     9 
   76    75    78    80     9 
   76    75    78    81     9 
   77    75    78    79     9 
   77    75    78    80     9 
   77    75    78    81     9 
   75    78    81    82     9 
   75    78    81    83     9 
   79    78    81    82     9 
   79    78    81    83     9 
   80    78    81    82     9 
   80    78    81    83     9 
   73    84    86    87     9 
   73    84    86    88     9 
   85    84    86    87     9 
   85    84    86    88     9 
   84    86    88    89     9 
   84    86    88    90     9 
   84    86    88    98     9 
   87    86    88    89     9 
   87    86    88    90     9 
   87    86    88    98     9 
   86    88    90    91     9 
   86    88    90    92     9 
   86    88    90    94     9 
   89    88    90    91     9 
   89    88    90    92     9 
   89    88    90    94     9 
   98    88    90    91     9 
   98    88    90    92     9 
   98    88    90    94     9 
   86    88    98    99     9 
   86    88    98   100     9 
   89    88    98    99     9 
   89    88    98   100     9 
   90    88    98    99     9 
   90    88    98   100     9 
   88    90    92    93     9 
   91    90    92    93     9 
   94    90    92    93     9 
   88    90    94    95     9 
   88    90    94    96     9 
   88    90    94    97     9 
   91    90    94    95     9 
   91    90    94    96     9 
   91    90    94    97     9 
   92    90    94    95     9 
   92    90    94    96     9 
   92    90    94    97     9 
   88    98   100   101     9 
   88    98   100   102     9 
   99    98   100   101     9 
   99    98   100   102     9 
   98   100   102   103     9 
   98   100   102   104     9 
   98   100   102   105     9 
  101   100   102   103     9 
  101   100   102   104     9 
  101   100   102   105     9 
  100   102   105   106     9 
  100   102   105   107     9 
  103   102   105   106     9 
  103   102   105   107     9 
  104   102   105   106     9 
  104   102   105   107     9 
  102   105   107   108     9 
  102   105   107   109     9 
  106   105   107   108     9 
  106   105   107   109     9 
  105   107   109   110     9 
  105   107   109   111     9 
  105   107   109   126     9 
  108   107   109   110     9 
  108   107   109   111     9 
  108   107   109   126     9 
  107   109   111   112     9 
  107   109   111   113     9 
  107   109   111   114     9 
  110   109   111   112     9 
  110   109   111   113     9 
  110   109   111   114     9 
  126   109   111   112     9 
  126   109   111   113     9 
  126   109   111   114     9 
  107   109   126   127     9 
  107   109   126   128     9 
  110   109   126   127     9 
  110   109   126   128     9 
  111   109   126   127     9 
  111   109   126   128     9 
  109   111   114   115     9 
  109   111   114   122     9 
  112   111   114   115     9 
  112   111   114   122     9 
  113   111   114   115     9 
  113   111   114   122     9 
  111   114   115   116     9 
  111   114   115   117     9 
  122   114   115   116     9 
  122   114   115   117     9 
  111   114   122   123     9 
  111   114   122   124     9 
  115   114   122   123     9 
  115   114   122   124     9 
  114   115   117   118     9 
  114   115   117   119     9 
  116   115   117   118     9 
  116   115   117   119     9 
  115   117   119   120     9 
  115   117   119   124     9 
  118   117   119   120     9 
  118   117   119   124     9 
  117   119   120   121     9 
  124   119   120   121     9 
  117   119   124   122     9 
  117   119   124   125     9 
  120   119   124   122     9 
  120   119   124   125     9 
  114   122   124   119     9 
  114   122   124   125     9 
  123   122   124   119     9 
  123   122   124   125     9 
  109   126   128   129     9 
  109   126   128   130     9 
  127   126   128   129     9 
  127   126   128   130     9 
  126   128   130   131     9 
  126   128   130   132     9 
  126   128   130   150     9 
  129   128   130   131     9 
  129   128   130   132     9 
  129   128   130   150     9 
  128   130   132   133     9 
  128   130   132   134     9 
  128   130   132   135     9 
  131   130   132   133     9 
  131   130   132   134     9 
  131   130   132   135     9 
  150   130   132   133     9 
  150   130   132   134     9 
  150   130   132   135     9 
  128   130   150   151     9 
  128   130   150   152     9 
  131   130   150   151     9 
  131   130   150   152     9 
  132   130   150   151     9 
  132   130   150   152     9 
  130   132   135   136     9 
  130   132   135   141     9 
  133   132   135   136     9 
  133   132   135   141     9 
  134   132   135   136     9 
  134   132   135   141     9 
  132   135   136   137     9 
  132   135   136   138     9 
  141   135   136   137     9 
  141   135   136   138     9 
  132   135   141   140     9 
  132   135   141   142     9 
  136   135   141   140     9 
  136   135   141   142     9 
  135   136   138   139     9 
  135   136   138   140     9 
  137   136   138   139     9 
  137   136   138   140     9 
  136   138   140   141     9 
  136   138   140   146     9 
  139   138   140   141     9 
  139   138   140   146     9 
  138   140   141   135     9 
  138   140   141   142     9 
  146   140   141   135     9 
  146   140   141   142     9 
  138   140   146   147     9 
  138   140   146   148     9 
  141   140   146   147     9 
  141   140   146   148     9 
  135   141   142   143     9 
  135   141   142   144     9 
  140   141   142   143     9 
  140   141   142   144     9 
  141   142   144   145     9 
  141   142   144   148     9 
  143   142   144   145     9 
  143   142   144   148     9 
  142   144   148   146     9 
  142   144   148   149     9 
  145   144   148   146     9 
  145   144   148   149     9 
  140   146   148   144     9 
  140   146   148   149     9 
  147   146   148   144     9 
  147   146   148   149     9 
  130   150   152   153     9 
  130   150   152   154     9 
  151   150   152   153     9 
  151   150   152   154     9 
  150   152   154   155     9 
  150   152   154   156     9 
  150   152   154   171     9 
  153   152   154   155     9 
  153   152   154   156     9 
  153   152   154   171     9 
  152   154   156   157     9 
  152   154   156   158     9 
  152   154   156   159     9 
  155   154   156   157     9 
  155   154   156   158     9 
  155   154   156   159     9 
  171   154   156   157     9 
  171   154   156   158     9 
  171   154   156   159     9 
  152   154   171   172     9 
  152   154   171   173     9 
  155   154   171   172     9 
  155   154   171   173     9 
  156   154   171   172     9 
  156   154   171   173     9 
  154   156   159   160     9 
  154   156   159   167     9 
  157   156   159   160     9 
  157   156   159   167     9 
  158   156   159   160     9 
  158   156   159   167     9 
  156   159   160   161     9 
  156   159   160   162     9 
  167   159   160   161     9 
  167   159   160   162     9 
  156   159   167   168     9 
  156   159   167   169     9 
  160   159   167   168     9 
  160   159   167   169     9 
  159   160   162   163     9 
  159   160   162   164     9 
  161   160   162   163     9 
  161   160   162   164     9 
  160   162   164   165     9 
  160   162   164   169     9 
  163   162   164   165     9 
  163   162   164   169     9 
  162   164   165   166     9 
  169   164   165   166     9 
  162   164   169   167     9 
  162   164   169   170     9 
  165   164   169   167     9 
  165   164   169   170     9 
  159   167   169   164     9 
  159   167   169   170     9 
  168   167   169   164     9 
  168   167   169   170     9 

[ dihedrals ]
;  ai    aj    ak    al funct            c0            c1            c2            c3
   22     5    24    23     2 
   24    22    26    25     2 
   43    26    45    44     2 
   45    43    47    46     2 
   52    49    54    53     2 
   55    47    57    56     2 
   57    55    61    58     2 
   69    61    71    70     2 
   71    69    73    72     2 
   81    78    83    82     2 
   84    73    86    85     2 
   86    84    88    87     2 
   98    88   100    99     2 
  100    98   102   101     2 
  105   102   107   106     2 
  107   105   109   108     2 
  126   109   128   127     2 
  128   126   130   129     2 
  150   130   152   151     2 
  152   150   154   153     2 
  171   154   173   172     2 

[ cmap ]
;  ai    aj    ak    al    am funct
   55    57    61    69    71     1 
   98   100   102   105   107     1 

; Include Position restraint file
#ifdef POSRES
#include "posre.itp"
#endif

; Include water topology
#include "charmm22star.ff/tip3p.itp"

#ifdef POSRES_WATER
; Position restraint for each water oxygen
[ position_restraints ]
;  i funct       fcx        fcy        fcz
   1    1       1000       1000       1000
#endif

; Include topology for ions
#include "charmm22star.ff/ions.itp"

[ system ]
; Name
Protein in water

[ molecules ]
; Compound        #mols
Protein_chain_A     1
SOL         1756
NA               2
