;
;	File 'topol.top' was generated
;	By user: muralika.m (21947)
;	On host: zeus
;	At date: Wed Sep  3 18:44:19 2025
;
;	This is a standalone topology file
;
;	Created by:
;	                    :-) GROMACS - gmx pdb2gmx, 2019.6 (-:
;	
;	Executable:   /home/muralika.m/.conda/envs/muralika/bin/gmx_mpi
;	Data prefix:  /home/muralika.m/.conda/envs/muralika
;	Working dir:  /rg/mendels_prj/muralika.m/ub/New_mutns/QYDPETGTWY
;	Command line:
;	  gmx_mpi pdb2gmx -f QYDPETGTWY.pdb -o processed_structure.gro -p topol.top -asp -glu -ter
;	Force field was read from the standard GROMACS share directory.
;

; Include forcefield parameters
#include "charmm22star.ff/forcefield.itp"

[ moleculetype ]
; Name            nrexcl
Protein_chain_A     3

[ atoms ]
;   nr       type  resnr residue  atom   cgnr     charge       mass  typeB    chargeB      massB
; residue   0 GLN rtp GLN  q +1.0
     1        NH3      0    GLN      N      1       -0.3    14.0027
     2         HC      0    GLN     H1      2       0.33      1.008
     3         HC      0    GLN     H2      3       0.33      1.008
     4         HC      0    GLN     H3      4       0.33      1.008
     5        CT1      0    GLN     CA      5       0.21     12.011
     6         HB      0    GLN     HA      6        0.1      1.008
     7        CT2      0    GLN     CB      7      -0.18     12.011
     8         HA      0    GLN    HB1      8       0.09      1.008
     9         HA      0    GLN    HB2      9       0.09      1.008
    10        CT2      0    GLN     CG     10      -0.18     12.011
    11         HA      0    GLN    HG1     11       0.09      1.008
    12         HA      0    GLN    HG2     12       0.09      1.008
    13         CC      0    GLN     CD     13       0.55     12.011
    14          O      0    GLN    OE1     14      -0.55     15.999
    15        NH2      0    GLN    NE2     15      -0.62     14.007
    16          H      0    GLN   HE21     16       0.32      1.008
    17          H      0    GLN   HE22     17        0.3      1.008
    18          C      0    GLN      C     18       0.51     12.011
    19          O      0    GLN      O     19      -0.51     15.999   ; qtot 1
; residue   1 TYR rtp TYR  q  0.0
    20        NH1      1    TYR      N     20      -0.47     14.007
    21          H      1    TYR     HN     21       0.31      1.008
    22        CT1      1    TYR     CA     22       0.07     12.011
    23         HB      1    TYR     HA     23       0.09      1.008
    24        CT2      1    TYR     CB     24      -0.18     12.011
    25         HA      1    TYR    HB1     25       0.09      1.008
    26         HA      1    TYR    HB2     26       0.09      1.008
    27         CA      1    TYR     CG     27          0     12.011
    28         CA      1    TYR    CD1     28     -0.115     12.011
    29         HP      1    TYR    HD1     29      0.115      1.008
    30         CA      1    TYR    CE1     30     -0.115     12.011
    31         HP      1    TYR    HE1     31      0.115      1.008
    32         CA      1    TYR     CZ     32       0.11     12.011
    33        OH1      1    TYR     OH     33      -0.54     15.999
    34          H      1    TYR     HH     34       0.43      1.008
    35         CA      1    TYR    CD2     35     -0.115     12.011
    36         HP      1    TYR    HD2     36      0.115      1.008
    37         CA      1    TYR    CE2     37     -0.115     12.011
    38         HP      1    TYR    HE2     38      0.115      1.008
    39          C      1    TYR      C     39       0.51     12.011
    40          O      1    TYR      O     40      -0.51     15.999   ; qtot 1
; residue   2 ASP rtp ASP  q -1.0
    41        NH1      2    ASP      N     41      -0.47     14.007
    42          H      2    ASP     HN     42       0.31      1.008
    43        CT1      2    ASP     CA     43       0.07     12.011
    44         HB      2    ASP     HA     44       0.09      1.008
    45        CT2      2    ASP     CB     45      -0.28     12.011
    46         HA      2    ASP    HB1     46       0.05      1.008
    47         HA      2    ASP    HB2     47       0.05      1.008
    48         CC      2    ASP     CG     48       0.56     12.011
    49         OC      2    ASP    OD1     49      -0.69     15.999
    50         OC      2    ASP    OD2     50      -0.69     15.999
    51          C      2    ASP      C     51       0.51     12.011
    52          O      2    ASP      O     52      -0.51     15.999   ; qtot 0
; residue   3 PRO rtp PRO  q  0.0
    53          N      3    PRO      N     53      -0.29     14.007
    54        CP3      3    PRO     CD     54          0     12.011
    55         HA      3    PRO    HD1     55       0.09      1.008
    56         HA      3    PRO    HD2     56       0.09      1.008
    57        CP1      3    PRO     CA     57       0.02     12.011
    58         HB      3    PRO     HA     58       0.09      1.008
    59        CP2      3    PRO     CB     59      -0.18     12.011
    60         HA      3    PRO    HB1     60       0.09      1.008
    61         HA      3    PRO    HB2     61       0.09      1.008
    62        CP2      3    PRO     CG     62      -0.18     12.011
    63         HA      3    PRO    HG1     63       0.09      1.008
    64         HA      3    PRO    HG2     64       0.09      1.008
    65          C      3    PRO      C     65       0.51     12.011
    66          O      3    PRO      O     66      -0.51     15.999   ; qtot 0
; residue   4 GLU rtp GLU  q -1.0
    67        NH1      4    GLU      N     67      -0.47     14.007
    68          H      4    GLU     HN     68       0.31      1.008
    69        CT1      4    GLU     CA     69       0.07     12.011
    70         HB      4    GLU     HA     70       0.09      1.008
    71        CT2      4    GLU     CB     71      -0.18     12.011
    72         HA      4    GLU    HB1     72       0.09      1.008
    73         HA      4    GLU    HB2     73       0.09      1.008
    74        CT2      4    GLU     CG     74      -0.28     12.011
    75         HA      4    GLU    HG1     75       0.05      1.008
    76         HA      4    GLU    HG2     76       0.05      1.008
    77         CC      4    GLU     CD     77       0.56     12.011
    78         OC      4    GLU    OE1     78      -0.69     15.999
    79         OC      4    GLU    OE2     79      -0.69     15.999
    80          C      4    GLU      C     80       0.51     12.011
    81          O      4    GLU      O     81      -0.51     15.999   ; qtot -1
; residue   5 THR rtp THR  q  0.0
    82        NH1      5    THR      N     82      -0.47     14.007
    83          H      5    THR     HN     83       0.31      1.008
    84        CT1      5    THR     CA     84       0.07     12.011
    85         HB      5    THR     HA     85       0.09      1.008
    86        CT1      5    THR     CB     86       0.14     12.011
    87         HA      5    THR     HB     87       0.09      1.008
    88        OH1      5    THR    OG1     88      -0.66     15.999
    89          H      5    THR    HG1     89       0.43      1.008
    90        CT3      5    THR    CG2     90      -0.27     12.011
    91         HA      5    THR   HG21     91       0.09      1.008
    92         HA      5    THR   HG22     92       0.09      1.008
    93         HA      5    THR   HG23     93       0.09      1.008
    94          C      5    THR      C     94       0.51     12.011
    95          O      5    THR      O     95      -0.51     15.999   ; qtot -1
; residue   6 GLY rtp GLY  q  0.0
    96        NH1      6    GLY      N     96      -0.47     14.007
    97          H      6    GLY     HN     97       0.31      1.008
    98        CT2      6    GLY     CA     98      -0.02     12.011
    99         HB      6    GLY    HA1     99       0.09      1.008
   100         HB      6    GLY    HA2    100       0.09      1.008
   101          C      6    GLY      C    101       0.51     12.011
   102          O      6    GLY      O    102      -0.51     15.999   ; qtot -1
; residue   7 THR rtp THR  q  0.0
   103        NH1      7    THR      N    103      -0.47     14.007
   104          H      7    THR     HN    104       0.31      1.008
   105        CT1      7    THR     CA    105       0.07     12.011
   106         HB      7    THR     HA    106       0.09      1.008
   107        CT1      7    THR     CB    107       0.14     12.011
   108         HA      7    THR     HB    108       0.09      1.008
   109        OH1      7    THR    OG1    109      -0.66     15.999
   110          H      7    THR    HG1    110       0.43      1.008
   111        CT3      7    THR    CG2    111      -0.27     12.011
   112         HA      7    THR   HG21    112       0.09      1.008
   113         HA      7    THR   HG22    113       0.09      1.008
   114         HA      7    THR   HG23    114       0.09      1.008
   115          C      7    THR      C    115       0.51     12.011
   116          O      7    THR      O    116      -0.51     15.999   ; qtot -1
; residue   8 TRP rtp TRP  q  0.0
   117        NH1      8    TRP      N    117      -0.47     14.007
   118          H      8    TRP     HN    118       0.31      1.008
   119        CT1      8    TRP     CA    119       0.07     12.011
   120         HB      8    TRP     HA    120       0.09      1.008
   121        CT2      8    TRP     CB    121      -0.18     12.011
   122         HA      8    TRP    HB1    122       0.09      1.008
   123         HA      8    TRP    HB2    123       0.09      1.008
   124         CY      8    TRP     CG    124      -0.03     12.011
   125         CA      8    TRP    CD1    125      0.035     12.011
   126         HP      8    TRP    HD1    126      0.115      1.008
   127         NY      8    TRP    NE1    127      -0.61     14.007
   128          H      8    TRP    HE1    128       0.38      1.008
   129        CPT      8    TRP    CE2    129       0.13     12.011
   130        CPT      8    TRP    CD2    130      -0.02     12.011
   131         CA      8    TRP    CE3    131     -0.115     12.011
   132         HP      8    TRP    HE3    132      0.115      1.008
   133         CA      8    TRP    CZ3    133     -0.115     12.011
   134         HP      8    TRP    HZ3    134      0.115      1.008
   135         CA      8    TRP    CZ2    135     -0.115     12.011
   136         HP      8    TRP    HZ2    136      0.115      1.008
   137         CA      8    TRP    CH2    137     -0.115     12.011
   138         HP      8    TRP    HH2    138      0.115      1.008
   139          C      8    TRP      C    139       0.51     12.011
   140          O      8    TRP      O    140      -0.51     15.999   ; qtot -1
; residue   9 TYR rtp TYR  q -1.0
   141        NH1      9    TYR      N    141      -0.47     14.007
   142          H      9    TYR     HN    142       0.31      1.008
   143        CT1      9    TYR     CA    143       0.07     12.011
   144         HB      9    TYR     HA    144       0.09      1.008
   145        CT2      9    TYR     CB    145      -0.18     12.011
   146         HA      9    TYR    HB1    146       0.09      1.008
   147         HA      9    TYR    HB2    147       0.09      1.008
   148         CA      9    TYR     CG    148          0     12.011
   149         CA      9    TYR    CD1    149     -0.115     12.011
   150         HP      9    TYR    HD1    150      0.115      1.008
   151         CA      9    TYR    CE1    151     -0.115     12.011
   152         HP      9    TYR    HE1    152      0.115      1.008
   153         CA      9    TYR     CZ    153       0.11     12.011
   154        OH1      9    TYR     OH    154      -0.54     15.999
   155          H      9    TYR     HH    155       0.43      1.008
   156         CA      9    TYR    CD2    156     -0.115     12.011
   157         HP      9    TYR    HD2    157      0.115      1.008
   158         CA      9    TYR    CE2    158     -0.115     12.011
   159         HP      9    TYR    HE2    159      0.115      1.008
   160         CC      9    TYR      C    160       0.34     12.011
   161         OC      9    TYR    OT1    161      -0.67    15.9994
   162         OC      9    TYR    OT2    162      -0.67    15.9994   ; qtot -2

[ bonds ]
;  ai    aj funct            c0            c1            c2            c3
    1     2     1 
    1     3     1 
    1     4     1 
    1     5     1 
    5     6     1 
    5     7     1 
    5    18     1 
    7     8     1 
    7     9     1 
    7    10     1 
   10    11     1 
   10    12     1 
   10    13     1 
   13    14     1 
   13    15     1 
   15    16     1 
   15    17     1 
   18    19     1 
   18    20     1 
   20    21     1 
   20    22     1 
   22    23     1 
   22    24     1 
   22    39     1 
   24    25     1 
   24    26     1 
   24    27     1 
   27    28     1 
   27    35     1 
   28    29     1 
   28    30     1 
   30    31     1 
   30    32     1 
   32    33     1 
   32    37     1 
   33    34     1 
   35    36     1 
   35    37     1 
   37    38     1 
   39    40     1 
   39    41     1 
   41    42     1 
   41    43     1 
   43    44     1 
   43    45     1 
   43    51     1 
   45    46     1 
   45    47     1 
   45    48     1 
   48    49     1 
   48    50     1 
   51    52     1 
   51    53     1 
   53    54     1 
   53    57     1 
   54    55     1 
   54    56     1 
   54    62     1 
   57    58     1 
   57    59     1 
   57    65     1 
   59    60     1 
   59    61     1 
   59    62     1 
   62    63     1 
   62    64     1 
   65    66     1 
   65    67     1 
   67    68     1 
   67    69     1 
   69    70     1 
   69    71     1 
   69    80     1 
   71    72     1 
   71    73     1 
   71    74     1 
   74    75     1 
   74    76     1 
   74    77     1 
   77    78     1 
   77    79     1 
   80    81     1 
   80    82     1 
   82    83     1 
   82    84     1 
   84    85     1 
   84    86     1 
   84    94     1 
   86    87     1 
   86    88     1 
   86    90     1 
   88    89     1 
   90    91     1 
   90    92     1 
   90    93     1 
   94    95     1 
   94    96     1 
   96    97     1 
   96    98     1 
   98    99     1 
   98   100     1 
   98   101     1 
  101   102     1 
  101   103     1 
  103   104     1 
  103   105     1 
  105   106     1 
  105   107     1 
  105   115     1 
  107   108     1 
  107   109     1 
  107   111     1 
  109   110     1 
  111   112     1 
  111   113     1 
  111   114     1 
  115   116     1 
  115   117     1 
  117   118     1 
  117   119     1 
  119   120     1 
  119   121     1 
  119   139     1 
  121   122     1 
  121   123     1 
  121   124     1 
  124   125     1 
  124   130     1 
  125   126     1 
  125   127     1 
  127   128     1 
  127   129     1 
  129   130     1 
  129   135     1 
  130   131     1 
  131   132     1 
  131   133     1 
  133   134     1 
  133   137     1 
  135   136     1 
  135   137     1 
  137   138     1 
  139   140     1 
  139   141     1 
  141   142     1 
  141   143     1 
  143   144     1 
  143   145     1 
  143   160     1 
  145   146     1 
  145   147     1 
  145   148     1 
  148   149     1 
  148   156     1 
  149   150     1 
  149   151     1 
  151   152     1 
  151   153     1 
  153   154     1 
  153   158     1 
  154   155     1 
  156   157     1 
  156   158     1 
  158   159     1 
  160   161     1 
  160   162     1 

[ pairs ]
;  ai    aj funct            c0            c1            c2            c3
    1     8     1 
    1     9     1 
    1    10     1 
    1    19     1 
    1    20     1 
    2     6     1 
    2     7     1 
    2    18     1 
    3     6     1 
    3     7     1 
    3    18     1 
    4     6     1 
    4     7     1 
    4    18     1 
    5    11     1 
    5    12     1 
    5    13     1 
    5    21     1 
    5    22     1 
    6     8     1 
    6     9     1 
    6    10     1 
    6    19     1 
    6    20     1 
    7    14     1 
    7    15     1 
    7    19     1 
    7    20     1 
    8    11     1 
    8    12     1 
    8    13     1 
    8    18     1 
    9    11     1 
    9    12     1 
    9    13     1 
    9    18     1 
   10    16     1 
   10    17     1 
   10    18     1 
   11    14     1 
   11    15     1 
   12    14     1 
   12    15     1 
   14    16     1 
   14    17     1 
   18    23     1 
   18    24     1 
   18    39     1 
   19    21     1 
   19    22     1 
   20    25     1 
   20    26     1 
   20    27     1 
   20    40     1 
   20    41     1 
   21    23     1 
   21    24     1 
   21    39     1 
   22    28     1 
   22    35     1 
   22    42     1 
   22    43     1 
   23    25     1 
   23    26     1 
   23    27     1 
   23    40     1 
   23    41     1 
   24    29     1 
   24    30     1 
   24    36     1 
   24    37     1 
   24    40     1 
   24    41     1 
   25    28     1 
   25    35     1 
   25    39     1 
   26    28     1 
   26    35     1 
   26    39     1 
   27    31     1 
   27    32     1 
   27    38     1 
   27    39     1 
   28    33     1 
   28    36     1 
   28    37     1 
   29    31     1 
   29    32     1 
   29    35     1 
   30    34     1 
   30    35     1 
   30    38     1 
   31    33     1 
   31    37     1 
   32    36     1 
   33    35     1 
   33    38     1 
   34    37     1 
   36    38     1 
   39    44     1 
   39    45     1 
   39    51     1 
   40    42     1 
   40    43     1 
   41    46     1 
   41    47     1 
   41    48     1 
   41    52     1 
   41    53     1 
   42    44     1 
   42    45     1 
   42    51     1 
   43    49     1 
   43    50     1 
   43    54     1 
   43    57     1 
   44    46     1 
   44    47     1 
   44    48     1 
   44    52     1 
   44    53     1 
   45    52     1 
   45    53     1 
   46    49     1 
   46    50     1 
   46    51     1 
   47    49     1 
   47    50     1 
   47    51     1 
   48    51     1 
   51    55     1 
   51    56     1 
   51    58     1 
   51    59     1 
   51    62     1 
   51    65     1 
   52    54     1 
   52    57     1 
   53    60     1 
   53    61     1 
   53    63     1 
   53    64     1 
   53    66     1 
   53    67     1 
   54    58     1 
   54    60     1 
   54    61     1 
   54    65     1 
   55    57     1 
   55    59     1 
   55    63     1 
   55    64     1 
   56    57     1 
   56    59     1 
   56    63     1 
   56    64     1 
   57    63     1 
   57    64     1 
   57    68     1 
   57    69     1 
   58    60     1 
   58    61     1 
   58    62     1 
   58    66     1 
   58    67     1 
   59    66     1 
   59    67     1 
   60    63     1 
   60    64     1 
   60    65     1 
   61    63     1 
   61    64     1 
   61    65     1 
   62    65     1 
   65    70     1 
   65    71     1 
   65    80     1 
   66    68     1 
   66    69     1 
   67    72     1 
   67    73     1 
   67    74     1 
   67    81     1 
   67    82     1 
   68    70     1 
   68    71     1 
   68    80     1 
   69    75     1 
   69    76     1 
   69    77     1 
   69    83     1 
   69    84     1 
   70    72     1 
   70    73     1 
   70    74     1 
   70    81     1 
   70    82     1 
   71    78     1 
   71    79     1 
   71    81     1 
   71    82     1 
   72    75     1 
   72    76     1 
   72    77     1 
   72    80     1 
   73    75     1 
   73    76     1 
   73    77     1 
   73    80     1 
   74    80     1 
   75    78     1 
   75    79     1 
   76    78     1 
   76    79     1 
   80    85     1 
   80    86     1 
   80    94     1 
   81    83     1 
   81    84     1 
   82    87     1 
   82    88     1 
   82    90     1 
   82    95     1 
   82    96     1 
   83    85     1 
   83    86     1 
   83    94     1 
   84    89     1 
   84    91     1 
   84    92     1 
   84    93     1 
   84    97     1 
   84    98     1 
   85    87     1 
   85    88     1 
   85    90     1 
   85    95     1 
   85    96     1 
   86    95     1 
   86    96     1 
   87    89     1 
   87    91     1 
   87    92     1 
   87    93     1 
   87    94     1 
   88    91     1 
   88    92     1 
   88    93     1 
   88    94     1 
   89    90     1 
   90    94     1 
   94    99     1 
   94   100     1 
   94   101     1 
   95    97     1 
   95    98     1 
   96   102     1 
   96   103     1 
   97    99     1 
   97   100     1 
   97   101     1 
   98   104     1 
   98   105     1 
   99   102     1 
   99   103     1 
  100   102     1 
  100   103     1 
  101   106     1 
  101   107     1 
  101   115     1 
  102   104     1 
  102   105     1 
  103   108     1 
  103   109     1 
  103   111     1 
  103   116     1 
  103   117     1 
  104   106     1 
  104   107     1 
  104   115     1 
  105   110     1 
  105   112     1 
  105   113     1 
  105   114     1 
  105   118     1 
  105   119     1 
  106   108     1 
  106   109     1 
  106   111     1 
  106   116     1 
  106   117     1 
  107   116     1 
  107   117     1 
  108   110     1 
  108   112     1 
  108   113     1 
  108   114     1 
  108   115     1 
  109   112     1 
  109   113     1 
  109   114     1 
  109   115     1 
  110   111     1 
  111   115     1 
  115   120     1 
  115   121     1 
  115   139     1 
  116   118     1 
  116   119     1 
  117   122     1 
  117   123     1 
  117   124     1 
  117   140     1 
  117   141     1 
  118   120     1 
  118   121     1 
  118   139     1 
  119   125     1 
  119   130     1 
  119   142     1 
  119   143     1 
  120   122     1 
  120   123     1 
  120   124     1 
  120   140     1 
  120   141     1 
  121   126     1 
  121   127     1 
  121   129     1 
  121   131     1 
  121   140     1 
  121   141     1 
  122   125     1 
  122   130     1 
  122   139     1 
  123   125     1 
  123   130     1 
  123   139     1 
  124   128     1 
  124   132     1 
  124   133     1 
  124   135     1 
  124   139     1 
  125   131     1 
  125   135     1 
  126   128     1 
  126   129     1 
  126   130     1 
  127   131     1 
  127   136     1 
  127   137     1 
  128   130     1 
  128   135     1 
  129   132     1 
  129   133     1 
  129   138     1 
  130   134     1 
  130   136     1 
  130   137     1 
  131   135     1 
  131   138     1 
  132   134     1 
  132   137     1 
  133   136     1 
  134   135     1 
  134   138     1 
  136   138     1 
  139   144     1 
  139   145     1 
  139   160     1 
  140   142     1 
  140   143     1 
  141   146     1 
  141   147     1 
  141   148     1 
  141   161     1 
  141   162     1 
  142   144     1 
  142   145     1 
  142   160     1 
  143   149     1 
  143   156     1 
  144   146     1 
  144   147     1 
  144   148     1 
  144   161     1 
  144   162     1 
  145   150     1 
  145   151     1 
  145   157     1 
  145   158     1 
  145   161     1 
  145   162     1 
  146   149     1 
  146   156     1 
  146   160     1 
  147   149     1 
  147   156     1 
  147   160     1 
  148   152     1 
  148   153     1 
  148   159     1 
  148   160     1 
  149   154     1 
  149   157     1 
  149   158     1 
  150   152     1 
  150   153     1 
  150   156     1 
  151   155     1 
  151   156     1 
  151   159     1 
  152   154     1 
  152   158     1 
  153   157     1 
  154   156     1 
  154   159     1 
  155   158     1 
  157   159     1 

[ angles ]
;  ai    aj    ak funct            c0            c1            c2            c3
    2     1     3     5 
    2     1     4     5 
    2     1     5     5 
    3     1     4     5 
    3     1     5     5 
    4     1     5     5 
    1     5     6     5 
    1     5     7     5 
    1     5    18     5 
    6     5     7     5 
    6     5    18     5 
    7     5    18     5 
    5     7     8     5 
    5     7     9     5 
    5     7    10     5 
    8     7     9     5 
    8     7    10     5 
    9     7    10     5 
    7    10    11     5 
    7    10    12     5 
    7    10    13     5 
   11    10    12     5 
   11    10    13     5 
   12    10    13     5 
   10    13    14     5 
   10    13    15     5 
   14    13    15     5 
   13    15    16     5 
   13    15    17     5 
   16    15    17     5 
    5    18    19     5 
    5    18    20     5 
   19    18    20     5 
   18    20    21     5 
   18    20    22     5 
   21    20    22     5 
   20    22    23     5 
   20    22    24     5 
   20    22    39     5 
   23    22    24     5 
   23    22    39     5 
   24    22    39     5 
   22    24    25     5 
   22    24    26     5 
   22    24    27     5 
   25    24    26     5 
   25    24    27     5 
   26    24    27     5 
   24    27    28     5 
   24    27    35     5 
   28    27    35     5 
   27    28    29     5 
   27    28    30     5 
   29    28    30     5 
   28    30    31     5 
   28    30    32     5 
   31    30    32     5 
   30    32    33     5 
   30    32    37     5 
   33    32    37     5 
   32    33    34     5 
   27    35    36     5 
   27    35    37     5 
   36    35    37     5 
   32    37    35     5 
   32    37    38     5 
   35    37    38     5 
   22    39    40     5 
   22    39    41     5 
   40    39    41     5 
   39    41    42     5 
   39    41    43     5 
   42    41    43     5 
   41    43    44     5 
   41    43    45     5 
   41    43    51     5 
   44    43    45     5 
   44    43    51     5 
   45    43    51     5 
   43    45    46     5 
   43    45    47     5 
   43    45    48     5 
   46    45    47     5 
   46    45    48     5 
   47    45    48     5 
   45    48    49     5 
   45    48    50     5 
   49    48    50     5 
   43    51    52     5 
   43    51    53     5 
   52    51    53     5 
   51    53    54     5 
   51    53    57     5 
   54    53    57     5 
   53    54    55     5 
   53    54    56     5 
   53    54    62     5 
   55    54    56     5 
   55    54    62     5 
   56    54    62     5 
   53    57    58     5 
   53    57    59     5 
   53    57    65     5 
   58    57    59     5 
   58    57    65     5 
   59    57    65     5 
   57    59    60     5 
   57    59    61     5 
   57    59    62     5 
   60    59    61     5 
   60    59    62     5 
   61    59    62     5 
   54    62    59     5 
   54    62    63     5 
   54    62    64     5 
   59    62    63     5 
   59    62    64     5 
   63    62    64     5 
   57    65    66     5 
   57    65    67     5 
   66    65    67     5 
   65    67    68     5 
   65    67    69     5 
   68    67    69     5 
   67    69    70     5 
   67    69    71     5 
   67    69    80     5 
   70    69    71     5 
   70    69    80     5 
   71    69    80     5 
   69    71    72     5 
   69    71    73     5 
   69    71    74     5 
   72    71    73     5 
   72    71    74     5 
   73    71    74     5 
   71    74    75     5 
   71    74    76     5 
   71    74    77     5 
   75    74    76     5 
   75    74    77     5 
   76    74    77     5 
   74    77    78     5 
   74    77    79     5 
   78    77    79     5 
   69    80    81     5 
   69    80    82     5 
   81    80    82     5 
   80    82    83     5 
   80    82    84     5 
   83    82    84     5 
   82    84    85     5 
   82    84    86     5 
   82    84    94     5 
   85    84    86     5 
   85    84    94     5 
   86    84    94     5 
   84    86    87     5 
   84    86    88     5 
   84    86    90     5 
   87    86    88     5 
   87    86    90     5 
   88    86    90     5 
   86    88    89     5 
   86    90    91     5 
   86    90    92     5 
   86    90    93     5 
   91    90    92     5 
   91    90    93     5 
   92    90    93     5 
   84    94    95     5 
   84    94    96     5 
   95    94    96     5 
   94    96    97     5 
   94    96    98     5 
   97    96    98     5 
   96    98    99     5 
   96    98   100     5 
   96    98   101     5 
   99    98   100     5 
   99    98   101     5 
  100    98   101     5 
   98   101   102     5 
   98   101   103     5 
  102   101   103     5 
  101   103   104     5 
  101   103   105     5 
  104   103   105     5 
  103   105   106     5 
  103   105   107     5 
  103   105   115     5 
  106   105   107     5 
  106   105   115     5 
  107   105   115     5 
  105   107   108     5 
  105   107   109     5 
  105   107   111     5 
  108   107   109     5 
  108   107   111     5 
  109   107   111     5 
  107   109   110     5 
  107   111   112     5 
  107   111   113     5 
  107   111   114     5 
  112   111   113     5 
  112   111   114     5 
  113   111   114     5 
  105   115   116     5 
  105   115   117     5 
  116   115   117     5 
  115   117   118     5 
  115   117   119     5 
  118   117   119     5 
  117   119   120     5 
  117   119   121     5 
  117   119   139     5 
  120   119   121     5 
  120   119   139     5 
  121   119   139     5 
  119   121   122     5 
  119   121   123     5 
  119   121   124     5 
  122   121   123     5 
  122   121   124     5 
  123   121   124     5 
  121   124   125     5 
  121   124   130     5 
  125   124   130     5 
  124   125   126     5 
  124   125   127     5 
  126   125   127     5 
  125   127   128     5 
  125   127   129     5 
  128   127   129     5 
  127   129   130     5 
  127   129   135     5 
  130   129   135     5 
  124   130   129     5 
  124   130   131     5 
  129   130   131     5 
  130   131   132     5 
  130   131   133     5 
  132   131   133     5 
  131   133   134     5 
  131   133   137     5 
  134   133   137     5 
  129   135   136     5 
  129   135   137     5 
  136   135   137     5 
  133   137   135     5 
  133   137   138     5 
  135   137   138     5 
  119   139   140     5 
  119   139   141     5 
  140   139   141     5 
  139   141   142     5 
  139   141   143     5 
  142   141   143     5 
  141   143   144     5 
  141   143   145     5 
  141   143   160     5 
  144   143   145     5 
  144   143   160     5 
  145   143   160     5 
  143   145   146     5 
  143   145   147     5 
  143   145   148     5 
  146   145   147     5 
  146   145   148     5 
  147   145   148     5 
  145   148   149     5 
  145   148   156     5 
  149   148   156     5 
  148   149   150     5 
  148   149   151     5 
  150   149   151     5 
  149   151   152     5 
  149   151   153     5 
  152   151   153     5 
  151   153   154     5 
  151   153   158     5 
  154   153   158     5 
  153   154   155     5 
  148   156   157     5 
  148   156   158     5 
  157   156   158     5 
  153   158   156     5 
  153   158   159     5 
  156   158   159     5 
  143   160   161     5 
  143   160   162     5 
  161   160   162     5 

[ dihedrals ]
;  ai    aj    ak    al funct            c0            c1            c2            c3            c4            c5
    2     1     5     6     9 
    2     1     5     7     9 
    2     1     5    18     9 
    3     1     5     6     9 
    3     1     5     7     9 
    3     1     5    18     9 
    4     1     5     6     9 
    4     1     5     7     9 
    4     1     5    18     9 
    1     5     7     8     9 
    1     5     7     9     9 
    1     5     7    10     9 
    6     5     7     8     9 
    6     5     7     9     9 
    6     5     7    10     9 
   18     5     7     8     9 
   18     5     7     9     9 
   18     5     7    10     9 
    1     5    18    19     9 
    1     5    18    20     9 
    6     5    18    19     9 
    6     5    18    20     9 
    7     5    18    19     9 
    7     5    18    20     9 
    5     7    10    11     9 
    5     7    10    12     9 
    5     7    10    13     9 
    8     7    10    11     9 
    8     7    10    12     9 
    8     7    10    13     9 
    9     7    10    11     9 
    9     7    10    12     9 
    9     7    10    13     9 
    7    10    13    14     9 
    7    10    13    15     9 
   11    10    13    14     9 
   11    10    13    15     9 
   12    10    13    14     9 
   12    10    13    15     9 
   10    13    15    16     9 
   10    13    15    17     9 
   14    13    15    16     9 
   14    13    15    17     9 
    5    18    20    21     9 
    5    18    20    22     9 
   19    18    20    21     9 
   19    18    20    22     9 
   18    20    22    23     9 
   18    20    22    24     9 
   18    20    22    39     9 
   21    20    22    23     9 
   21    20    22    24     9 
   21    20    22    39     9 
   20    22    24    25     9 
   20    22    24    26     9 
   20    22    24    27     9 
   23    22    24    25     9 
   23    22    24    26     9 
   23    22    24    27     9 
   39    22    24    25     9 
   39    22    24    26     9 
   39    22    24    27     9 
   20    22    39    40     9 
   20    22    39    41     9 
   23    22    39    40     9 
   23    22    39    41     9 
   24    22    39    40     9 
   24    22    39    41     9 
   22    24    27    28     9 
   22    24    27    35     9 
   25    24    27    28     9 
   25    24    27    35     9 
   26    24    27    28     9 
   26    24    27    35     9 
   24    27    28    29     9 
   24    27    28    30     9 
   35    27    28    29     9 
   35    27    28    30     9 
   24    27    35    36     9 
   24    27    35    37     9 
   28    27    35    36     9 
   28    27    35    37     9 
   27    28    30    31     9 
   27    28    30    32     9 
   29    28    30    31     9 
   29    28    30    32     9 
   28    30    32    33     9 
   28    30    32    37     9 
   31    30    32    33     9 
   31    30    32    37     9 
   30    32    33    34     9 
   37    32    33    34     9 
   30    32    37    35     9 
   30    32    37    38     9 
   33    32    37    35     9 
   33    32    37    38     9 
   27    35    37    32     9 
   27    35    37    38     9 
   36    35    37    32     9 
   36    35    37    38     9 
   22    39    41    42     9 
   22    39    41    43     9 
   40    39    41    42     9 
   40    39    41    43     9 
   39    41    43    44     9 
   39    41    43    45     9 
   39    41    43    51     9 
   42    41    43    44     9 
   42    41    43    45     9 
   42    41    43    51     9 
   41    43    45    46     9 
   41    43    45    47     9 
   41    43    45    48     9 
   44    43    45    46     9 
   44    43    45    47     9 
   44    43    45    48     9 
   51    43    45    46     9 
   51    43    45    47     9 
   51    43    45    48     9 
   41    43    51    52     9 
   41    43    51    53     9 
   44    43    51    52     9 
   44    43    51    53     9 
   45    43    51    52     9 
   45    43    51    53     9 
   43    45    48    49     9 
   43    45    48    50     9 
   46    45    48    49     9 
   46    45    48    50     9 
   47    45    48    49     9 
   47    45    48    50     9 
   43    51    53    54     9 
   43    51    53    57     9 
   52    51    53    54     9 
   52    51    53    57     9 
   51    53    54    55     9 
   51    53    54    56     9 
   51    53    54    62     9 
   57    53    54    55     9 
   57    53    54    56     9 
   57    53    54    62     9 
   51    53    57    58     9 
   51    53    57    59     9 
   51    53    57    65     9 
   54    53    57    58     9 
   54    53    57    59     9 
   54    53    57    65     9 
   53    54    62    59     9 
   53    54    62    63     9 
   53    54    62    64     9 
   55    54    62    59     9 
   55    54    62    63     9 
   55    54    62    64     9 
   56    54    62    59     9 
   56    54    62    63     9 
   56    54    62    64     9 
   53    57    59    60     9 
   53    57    59    61     9 
   53    57    59    62     9 
   58    57    59    60     9 
   58    57    59    61     9 
   58    57    59    62     9 
   65    57    59    60     9 
   65    57    59    61     9 
   65    57    59    62     9 
   53    57    65    66     9 
   53    57    65    67     9 
   58    57    65    66     9 
   58    57    65    67     9 
   59    57    65    66     9 
   59    57    65    67     9 
   57    59    62    54     9 
   57    59    62    63     9 
   57    59    62    64     9 
   60    59    62    54     9 
   60    59    62    63     9 
   60    59    62    64     9 
   61    59    62    54     9 
   61    59    62    63     9 
   61    59    62    64     9 
   57    65    67    68     9 
   57    65    67    69     9 
   66    65    67    68     9 
   66    65    67    69     9 
   65    67    69    70     9 
   65    67    69    71     9 
   65    67    69    80     9 
   68    67    69    70     9 
   68    67    69    71     9 
   68    67    69    80     9 
   67    69    71    72     9 
   67    69    71    73     9 
   67    69    71    74     9 
   70    69    71    72     9 
   70    69    71    73     9 
   70    69    71    74     9 
   80    69    71    72     9 
   80    69    71    73     9 
   80    69    71    74     9 
   67    69    80    81     9 
   67    69    80    82     9 
   70    69    80    81     9 
   70    69    80    82     9 
   71    69    80    81     9 
   71    69    80    82     9 
   69    71    74    75     9 
   69    71    74    76     9 
   69    71    74    77     9 
   72    71    74    75     9 
   72    71    74    76     9 
   72    71    74    77     9 
   73    71    74    75     9 
   73    71    74    76     9 
   73    71    74    77     9 
   71    74    77    78     9 
   71    74    77    79     9 
   75    74    77    78     9 
   75    74    77    79     9 
   76    74    77    78     9 
   76    74    77    79     9 
   69    80    82    83     9 
   69    80    82    84     9 
   81    80    82    83     9 
   81    80    82    84     9 
   80    82    84    85     9 
   80    82    84    86     9 
   80    82    84    94     9 
   83    82    84    85     9 
   83    82    84    86     9 
   83    82    84    94     9 
   82    84    86    87     9 
   82    84    86    88     9 
   82    84    86    90     9 
   85    84    86    87     9 
   85    84    86    88     9 
   85    84    86    90     9 
   94    84    86    87     9 
   94    84    86    88     9 
   94    84    86    90     9 
   82    84    94    95     9 
   82    84    94    96     9 
   85    84    94    95     9 
   85    84    94    96     9 
   86    84    94    95     9 
   86    84    94    96     9 
   84    86    88    89     9 
   87    86    88    89     9 
   90    86    88    89     9 
   84    86    90    91     9 
   84    86    90    92     9 
   84    86    90    93     9 
   87    86    90    91     9 
   87    86    90    92     9 
   87    86    90    93     9 
   88    86    90    91     9 
   88    86    90    92     9 
   88    86    90    93     9 
   84    94    96    97     9 
   84    94    96    98     9 
   95    94    96    97     9 
   95    94    96    98     9 
   94    96    98    99     9 
   94    96    98   100     9 
   94    96    98   101     9 
   97    96    98    99     9 
   97    96    98   100     9 
   97    96    98   101     9 
   96    98   101   102     9 
   96    98   101   103     9 
   99    98   101   102     9 
   99    98   101   103     9 
  100    98   101   102     9 
  100    98   101   103     9 
   98   101   103   104     9 
   98   101   103   105     9 
  102   101   103   104     9 
  102   101   103   105     9 
  101   103   105   106     9 
  101   103   105   107     9 
  101   103   105   115     9 
  104   103   105   106     9 
  104   103   105   107     9 
  104   103   105   115     9 
  103   105   107   108     9 
  103   105   107   109     9 
  103   105   107   111     9 
  106   105   107   108     9 
  106   105   107   109     9 
  106   105   107   111     9 
  115   105   107   108     9 
  115   105   107   109     9 
  115   105   107   111     9 
  103   105   115   116     9 
  103   105   115   117     9 
  106   105   115   116     9 
  106   105   115   117     9 
  107   105   115   116     9 
  107   105   115   117     9 
  105   107   109   110     9 
  108   107   109   110     9 
  111   107   109   110     9 
  105   107   111   112     9 
  105   107   111   113     9 
  105   107   111   114     9 
  108   107   111   112     9 
  108   107   111   113     9 
  108   107   111   114     9 
  109   107   111   112     9 
  109   107   111   113     9 
  109   107   111   114     9 
  105   115   117   118     9 
  105   115   117   119     9 
  116   115   117   118     9 
  116   115   117   119     9 
  115   117   119   120     9 
  115   117   119   121     9 
  115   117   119   139     9 
  118   117   119   120     9 
  118   117   119   121     9 
  118   117   119   139     9 
  117   119   121   122     9 
  117   119   121   123     9 
  117   119   121   124     9 
  120   119   121   122     9 
  120   119   121   123     9 
  120   119   121   124     9 
  139   119   121   122     9 
  139   119   121   123     9 
  139   119   121   124     9 
  117   119   139   140     9 
  117   119   139   141     9 
  120   119   139   140     9 
  120   119   139   141     9 
  121   119   139   140     9 
  121   119   139   141     9 
  119   121   124   125     9 
  119   121   124   130     9 
  122   121   124   125     9 
  122   121   124   130     9 
  123   121   124   125     9 
  123   121   124   130     9 
  121   124   125   126     9 
  121   124   125   127     9 
  130   124   125   126     9 
  130   124   125   127     9 
  121   124   130   129     9 
  121   124   130   131     9 
  125   124   130   129     9 
  125   124   130   131     9 
  124   125   127   128     9 
  124   125   127   129     9 
  126   125   127   128     9 
  126   125   127   129     9 
  125   127   129   130     9 
  125   127   129   135     9 
  128   127   129   130     9 
  128   127   129   135     9 
  127   129   130   124     9 
  127   129   130   131     9 
  135   129   130   124     9 
  135   129   130   131     9 
  127   129   135   136     9 
  127   129   135   137     9 
  130   129   135   136     9 
  130   129   135   137     9 
  124   130   131   132     9 
  124   130   131   133     9 
  129   130   131   132     9 
  129   130   131   133     9 
  130   131   133   134     9 
  130   131   133   137     9 
  132   131   133   134     9 
  132   131   133   137     9 
  131   133   137   135     9 
  131   133   137   138     9 
  134   133   137   135     9 
  134   133   137   138     9 
  129   135   137   133     9 
  129   135   137   138     9 
  136   135   137   133     9 
  136   135   137   138     9 
  119   139   141   142     9 
  119   139   141   143     9 
  140   139   141   142     9 
  140   139   141   143     9 
  139   141   143   144     9 
  139   141   143   145     9 
  139   141   143   160     9 
  142   141   143   144     9 
  142   141   143   145     9 
  142   141   143   160     9 
  141   143   145   146     9 
  141   143   145   147     9 
  141   143   145   148     9 
  144   143   145   146     9 
  144   143   145   147     9 
  144   143   145   148     9 
  160   143   145   146     9 
  160   143   145   147     9 
  160   143   145   148     9 
  141   143   160   161     9 
  141   143   160   162     9 
  144   143   160   161     9 
  144   143   160   162     9 
  145   143   160   161     9 
  145   143   160   162     9 
  143   145   148   149     9 
  143   145   148   156     9 
  146   145   148   149     9 
  146   145   148   156     9 
  147   145   148   149     9 
  147   145   148   156     9 
  145   148   149   150     9 
  145   148   149   151     9 
  156   148   149   150     9 
  156   148   149   151     9 
  145   148   156   157     9 
  145   148   156   158     9 
  149   148   156   157     9 
  149   148   156   158     9 
  148   149   151   152     9 
  148   149   151   153     9 
  150   149   151   152     9 
  150   149   151   153     9 
  149   151   153   154     9 
  149   151   153   158     9 
  152   151   153   154     9 
  152   151   153   158     9 
  151   153   154   155     9 
  158   153   154   155     9 
  151   153   158   156     9 
  151   153   158   159     9 
  154   153   158   156     9 
  154   153   158   159     9 
  148   156   158   153     9 
  148   156   158   159     9 
  157   156   158   153     9 
  157   156   158   159     9 

[ dihedrals ]
;  ai    aj    ak    al funct            c0            c1            c2            c3
   13    10    15    14     2 
   13    15    10    14     2 
   15    13    17    16     2 
   15    13    16    17     2 
   18     5    20    19     2 
   20    18    22    21     2 
   39    22    41    40     2 
   41    39    43    42     2 
   48    45    50    49     2 
   51    43    53    52     2 
   53    51    57    54     2 
   65    57    67    66     2 
   67    65    69    68     2 
   77    74    79    78     2 
   80    69    82    81     2 
   82    80    84    83     2 
   94    84    96    95     2 
   96    94    98    97     2 
  101    98   103   102     2 
  103   101   105   104     2 
  115   105   117   116     2 
  117   115   119   118     2 
  139   119   141   140     2 
  141   139   143   142     2 
  160   143   162   161     2 

[ cmap ]
;  ai    aj    ak    al    am funct
   51    53    57    65    67     1 
   94    96    98   101   103     1 

; Include Position restraint file
#ifdef POSRES
#include "posre.itp"
#endif

; Include water topology
#include "charmm22star.ff/tip3p.itp"

#ifdef POSRES_WATER
; Position restraint for each water oxygen
[ position_restraints ]
;  i funct       fcx        fcy        fcz
   1    1       1000       1000       1000
#endif

; Include topology for ions
#include "charmm22star.ff/ions.itp"

[ system ]
; Name
Protein in water

[ molecules ]
; Compound        #mols
Protein_chain_A     1
SOL         1761
NA               2
